+ 0.1 0 2 cbr 210 ------- 0 0.0 3.0 0 0
- 0.1 0 2 cbr 210 ------- 0 0.0 3.0 0 0
+ 0.1 1 2 cbr 210 ------- 0 1.0 3.0 0 1
- 0.1 1 2 cbr 210 ------- 0 1.0 3.0 0 1
+ 0.10375 0 2 cbr 210 ------- 0 0.0 3.0 1 2
- 0.10375 0 2 cbr 210 ------- 0 0.0 3.0 1 2
+ 0.10375 1 2 cbr 210 ------- 0 1.0 3.0 1 3
- 0.10375 1 2 cbr 210 ------- 0 1.0 3.0 1 3
+ 0.1075 0 2 cbr 210 ------- 0 0.0 3.0 2 4
- 0.1075 0 2 cbr 210 ------- 0 0.0 3.0 2 4
+ 0.1075 1 2 cbr 210 ------- 0 1.0 3.0 2 5
- 0.1075 1 2 cbr 210 ------- 0 1.0 3.0 2 5
+ 0.11125 0 2 cbr 210 ------- 0 0.0 3.0 3 6
- 0.11125 0 2 cbr 210 ------- 0 0.0 3.0 3 6
+ 0.11125 1 2 cbr 210 ------- 0 1.0 3.0 3 7
- 0.11125 1 2 cbr 210 ------- 0 1.0 3.0 3 7
+ 0.115 0 2 cbr 210 ------- 0 0.0 3.0 4 8
- 0.115 0 2 cbr 210 ------- 0 0.0 3.0 4 8
+ 0.115 1 2 cbr 210 ------- 0 1.0 3.0 4 9
- 0.115 1 2 cbr 210 ------- 0 1.0 3.0 4 9
+ 0.11875 0 2 cbr 210 ------- 0 0.0 3.0 5 10
- 0.11875 0 2 cbr 210 ------- 0 0.0 3.0 5 10
+ 0.11875 1 2 cbr 210 ------- 0 1.0 3.0 5 11
- 0.11875 1 2 cbr 210 ------- 0 1.0 3.0 5 11
+ 0.1225 0 2 cbr 210 ------- 0 0.0 3.0 6 12
- 0.1225 0 2 cbr 210 ------- 0 0.0 3.0 6 12
+ 0.1225 1 2 cbr 210 ------- 0 1.0 3.0 6 13
- 0.1225 1 2 cbr 210 ------- 0 1.0 3.0 6 13
+ 0.12625 0 2 cbr 210 ------- 0 0.0 3.0 7 14
- 0.12625 0 2 cbr 210 ------- 0 0.0 3.0 7 14
+ 0.12625 1 2 cbr 210 ------- 0 1.0 3.0 7 15
- 0.12625 1 2 cbr 210 ------- 0 1.0 3.0 7 15
+ 0.13 0 2 cbr 210 ------- 0 0.0 3.0 8 16
- 0.13 0 2 cbr 210 ------- 0 0.0 3.0 8 16
+ 0.13 1 2 cbr 210 ------- 0 1.0 3.0 8 17
- 0.13 1 2 cbr 210 ------- 0 1.0 3.0 8 17
+ 0.13375 0 2 cbr 210 ------- 0 0.0 3.0 9 18
- 0.13375 0 2 cbr 210 ------- 0 0.0 3.0 9 18
+ 0.13375 1 2 cbr 210 ------- 0 1.0 3.0 9 19
- 0.13375 1 2 cbr 210 ------- 0 1.0 3.0 9 19
+ 0.1375 0 2 cbr 210 ------- 0 0.0 3.0 10 20
- 0.1375 0 2 cbr 210 ------- 0 0.0 3.0 10 20
+ 0.1375 1 2 cbr 210 ------- 0 1.0 3.0 10 21
- 0.1375 1 2 cbr 210 ------- 0 1.0 3.0 10 21
+ 0.14125 0 2 cbr 210 ------- 0 0.0 3.0 11 22
- 0.14125 0 2 cbr 210 ------- 0 0.0 3.0 11 22
+ 0.14125 1 2 cbr 210 ------- 0 1.0 3.0 11 23
- 0.14125 1 2 cbr 210 ------- 0 1.0 3.0 11 23
+ 0.145 0 2 cbr 210 ------- 0 0.0 3.0 12 24
- 0.145 0 2 cbr 210 ------- 0 0.0 3.0 12 24
+ 0.145 1 2 cbr 210 ------- 0 1.0 3.0 12 25
- 0.145 1 2 cbr 210 ------- 0 1.0 3.0 12 25
+ 0.14875 0 2 cbr 210 ------- 0 0.0 3.0 13 26
- 0.14875 0 2 cbr 210 ------- 0 0.0 3.0 13 26
+ 0.14875 1 2 cbr 210 ------- 0 1.0 3.0 13 27
- 0.14875 1 2 cbr 210 ------- 0 1.0 3.0 13 27
+ 0.1525 0 2 cbr 210 ------- 0 0.0 3.0 14 28
- 0.1525 0 2 cbr 210 ------- 0 0.0 3.0 14 28
+ 0.1525 1 2 cbr 210 ------- 0 1.0 3.0 14 29
- 0.1525 1 2 cbr 210 ------- 0 1.0 3.0 14 29
+ 0.15625 0 2 cbr 210 ------- 0 0.0 3.0 15 30
- 0.15625 0 2 cbr 210 ------- 0 0.0 3.0 15 30
+ 0.15625 1 2 cbr 210 ------- 0 1.0 3.0 15 31
- 0.15625 1 2 cbr 210 ------- 0 1.0 3.0 15 31
+ 0.16 0 2 cbr 210 ------- 0 0.0 3.0 16 32
- 0.16 0 2 cbr 210 ------- 0 0.0 3.0 16 32
+ 0.16 1 2 cbr 210 ------- 0 1.0 3.0 16 33
- 0.16 1 2 cbr 210 ------- 0 1.0 3.0 16 33
+ 0.16375 0 2 cbr 210 ------- 0 0.0 3.0 17 34
- 0.16375 0 2 cbr 210 ------- 0 0.0 3.0 17 34
+ 0.16375 1 2 cbr 210 ------- 0 1.0 3.0 17 35
- 0.16375 1 2 cbr 210 ------- 0 1.0 3.0 17 35
+ 0.1675 0 2 cbr 210 ------- 0 0.0 3.0 18 36
- 0.1675 0 2 cbr 210 ------- 0 0.0 3.0 18 36
+ 0.1675 1 2 cbr 210 ------- 0 1.0 3.0 18 37
- 0.1675 1 2 cbr 210 ------- 0 1.0 3.0 18 37
+ 0.17125 0 2 cbr 210 ------- 0 0.0 3.0 19 38
- 0.17125 0 2 cbr 210 ------- 0 0.0 3.0 19 38
+ 0.17125 1 2 cbr 210 ------- 0 1.0 3.0 19 39
- 0.17125 1 2 cbr 210 ------- 0 1.0 3.0 19 39
+ 0.175 0 2 cbr 210 ------- 0 0.0 3.0 20 40
- 0.175 0 2 cbr 210 ------- 0 0.0 3.0 20 40
+ 0.175 1 2 cbr 210 ------- 0 1.0 3.0 20 41
- 0.175 1 2 cbr 210 ------- 0 1.0 3.0 20 41
+ 0.17875 0 2 cbr 210 ------- 0 0.0 3.0 21 42
- 0.17875 0 2 cbr 210 ------- 0 0.0 3.0 21 42
+ 0.17875 1 2 cbr 210 ------- 0 1.0 3.0 21 43
- 0.17875 1 2 cbr 210 ------- 0 1.0 3.0 21 43
+ 0.1825 0 2 cbr 210 ------- 0 0.0 3.0 22 44
- 0.1825 0 2 cbr 210 ------- 0 0.0 3.0 22 44
+ 0.1825 1 2 cbr 210 ------- 0 1.0 3.0 22 45
- 0.1825 1 2 cbr 210 ------- 0 1.0 3.0 22 45
+ 0.18625 0 2 cbr 210 ------- 0 0.0 3.0 23 46
- 0.18625 0 2 cbr 210 ------- 0 0.0 3.0 23 46
+ 0.18625 1 2 cbr 210 ------- 0 1.0 3.0 23 47
- 0.18625 1 2 cbr 210 ------- 0 1.0 3.0 23 47
+ 0.19 0 2 cbr 210 ------- 0 0.0 3.0 24 48
- 0.19 0 2 cbr 210 ------- 0 0.0 3.0 24 48
+ 0.19 1 2 cbr 210 ------- 0 1.0 3.0 24 49
- 0.19 1 2 cbr 210 ------- 0 1.0 3.0 24 49
+ 0.19375 0 2 cbr 210 ------- 0 0.0 3.0 25 50
- 0.19375 0 2 cbr 210 ------- 0 0.0 3.0 25 50
+ 0.19375 1 2 cbr 210 ------- 0 1.0 3.0 25 51
- 0.19375 1 2 cbr 210 ------- 0 1.0 3.0 25 51
+ 0.1975 0 2 cbr 210 ------- 0 0.0 3.0 26 52
- 0.1975 0 2 cbr 210 ------- 0 0.0 3.0 26 52
+ 0.1975 1 2 cbr 210 ------- 0 1.0 3.0 26 53
- 0.1975 1 2 cbr 210 ------- 0 1.0 3.0 26 53
+ 0.20125 0 2 cbr 210 ------- 0 0.0 3.0 27 54
- 0.20125 0 2 cbr 210 ------- 0 0.0 3.0 27 54
+ 0.20125 1 2 cbr 210 ------- 0 1.0 3.0 27 55
- 0.20125 1 2 cbr 210 ------- 0 1.0 3.0 27 55
+ 0.205 0 2 cbr 210 ------- 0 0.0 3.0 28 56
- 0.205 0 2 cbr 210 ------- 0 0.0 3.0 28 56
+ 0.205 1 2 cbr 210 ------- 0 1.0 3.0 28 57
- 0.205 1 2 cbr 210 ------- 0 1.0 3.0 28 57
+ 0.20875 0 2 cbr 210 ------- 0 0.0 3.0 29 58
- 0.20875 0 2 cbr 210 ------- 0 0.0 3.0 29 58
+ 0.20875 1 2 cbr 210 ------- 0 1.0 3.0 29 59
- 0.20875 1 2 cbr 210 ------- 0 1.0 3.0 29 59
+ 0.2125 0 2 cbr 210 ------- 0 0.0 3.0 30 60
- 0.2125 0 2 cbr 210 ------- 0 0.0 3.0 30 60
+ 0.2125 1 2 cbr 210 ------- 0 1.0 3.0 30 61
- 0.2125 1 2 cbr 210 ------- 0 1.0 3.0 30 61
+ 0.21625 0 2 cbr 210 ------- 0 0.0 3.0 31 62
- 0.21625 0 2 cbr 210 ------- 0 0.0 3.0 31 62
+ 0.21625 1 2 cbr 210 ------- 0 1.0 3.0 31 63
- 0.21625 1 2 cbr 210 ------- 0 1.0 3.0 31 63
+ 0.22 0 2 cbr 210 ------- 0 0.0 3.0 32 64
- 0.22 0 2 cbr 210 ------- 0 0.0 3.0 32 64
+ 0.22 1 2 cbr 210 ------- 0 1.0 3.0 32 65
- 0.22 1 2 cbr 210 ------- 0 1.0 3.0 32 65
+ 0.22375 0 2 cbr 210 ------- 0 0.0 3.0 33 66
- 0.22375 0 2 cbr 210 ------- 0 0.0 3.0 33 66
+ 0.22375 1 2 cbr 210 ------- 0 1.0 3.0 33 67
- 0.22375 1 2 cbr 210 ------- 0 1.0 3.0 33 67
+ 0.2275 0 2 cbr 210 ------- 0 0.0 3.0 34 68
- 0.2275 0 2 cbr 210 ------- 0 0.0 3.0 34 68
+ 0.2275 1 2 cbr 210 ------- 0 1.0 3.0 34 69
- 0.2275 1 2 cbr 210 ------- 0 1.0 3.0 34 69
+ 0.23125 0 2 cbr 210 ------- 0 0.0 3.0 35 70
- 0.23125 0 2 cbr 210 ------- 0 0.0 3.0 35 70
+ 0.23125 1 2 cbr 210 ------- 0 1.0 3.0 35 71
- 0.23125 1 2 cbr 210 ------- 0 1.0 3.0 35 71
+ 0.235 0 2 cbr 210 ------- 0 0.0 3.0 36 72
- 0.235 0 2 cbr 210 ------- 0 0.0 3.0 36 72
+ 0.235 1 2 cbr 210 ------- 0 1.0 3.0 36 73
- 0.235 1 2 cbr 210 ------- 0 1.0 3.0 36 73
+ 0.23875 0 2 cbr 210 ------- 0 0.0 3.0 37 74
- 0.23875 0 2 cbr 210 ------- 0 0.0 3.0 37 74
+ 0.23875 1 2 cbr 210 ------- 0 1.0 3.0 37 75
- 0.23875 1 2 cbr 210 ------- 0 1.0 3.0 37 75
+ 0.2425 0 2 cbr 210 ------- 0 0.0 3.0 38 76
- 0.2425 0 2 cbr 210 ------- 0 0.0 3.0 38 76
+ 0.2425 1 2 cbr 210 ------- 0 1.0 3.0 38 77
- 0.2425 1 2 cbr 210 ------- 0 1.0 3.0 38 77
+ 0.24625 0 2 cbr 210 ------- 0 0.0 3.0 39 78
- 0.24625 0 2 cbr 210 ------- 0 0.0 3.0 39 78
+ 0.24625 1 2 cbr 210 ------- 0 1.0 3.0 39 79
- 0.24625 1 2 cbr 210 ------- 0 1.0 3.0 39 79
+ 0.25 0 2 cbr 210 ------- 0 0.0 3.0 40 80
- 0.25 0 2 cbr 210 ------- 0 0.0 3.0 40 80
+ 0.25 1 2 cbr 210 ------- 0 1.0 3.0 40 81
- 0.25 1 2 cbr 210 ------- 0 1.0 3.0 40 81
+ 0.25375 0 2 cbr 210 ------- 0 0.0 3.0 41 82
- 0.25375 0 2 cbr 210 ------- 0 0.0 3.0 41 82
+ 0.25375 1 2 cbr 210 ------- 0 1.0 3.0 41 83
- 0.25375 1 2 cbr 210 ------- 0 1.0 3.0 41 83
+ 0.2575 0 2 cbr 210 ------- 0 0.0 3.0 42 84
- 0.2575 0 2 cbr 210 ------- 0 0.0 3.0 42 84
+ 0.2575 1 2 cbr 210 ------- 0 1.0 3.0 42 85
- 0.2575 1 2 cbr 210 ------- 0 1.0 3.0 42 85
+ 0.26125 0 2 cbr 210 ------- 0 0.0 3.0 43 86
- 0.26125 0 2 cbr 210 ------- 0 0.0 3.0 43 86
+ 0.26125 1 2 cbr 210 ------- 0 1.0 3.0 43 87
- 0.26125 1 2 cbr 210 ------- 0 1.0 3.0 43 87
+ 0.265 0 2 cbr 210 ------- 0 0.0 3.0 44 88
- 0.265 0 2 cbr 210 ------- 0 0.0 3.0 44 88
+ 0.265 1 2 cbr 210 ------- 0 1.0 3.0 44 89
- 0.265 1 2 cbr 210 ------- 0 1.0 3.0 44 89
+ 0.26875 0 2 cbr 210 ------- 0 0.0 3.0 45 90
- 0.26875 0 2 cbr 210 ------- 0 0.0 3.0 45 90
+ 0.26875 1 2 cbr 210 ------- 0 1.0 3.0 45 91
- 0.26875 1 2 cbr 210 ------- 0 1.0 3.0 45 91
+ 0.2725 0 2 cbr 210 ------- 0 0.0 3.0 46 92
- 0.2725 0 2 cbr 210 ------- 0 0.0 3.0 46 92
+ 0.2725 1 2 cbr 210 ------- 0 1.0 3.0 46 93
- 0.2725 1 2 cbr 210 ------- 0 1.0 3.0 46 93
+ 0.27625 0 2 cbr 210 ------- 0 0.0 3.0 47 94
- 0.27625 0 2 cbr 210 ------- 0 0.0 3.0 47 94
+ 0.27625 1 2 cbr 210 ------- 0 1.0 3.0 47 95
- 0.27625 1 2 cbr 210 ------- 0 1.0 3.0 47 95
+ 0.28 0 2 cbr 210 ------- 0 0.0 3.0 48 96
- 0.28 0 2 cbr 210 ------- 0 0.0 3.0 48 96
+ 0.28 1 2 cbr 210 ------- 0 1.0 3.0 48 97
- 0.28 1 2 cbr 210 ------- 0 1.0 3.0 48 97
+ 0.28375 0 2 cbr 210 ------- 0 0.0 3.0 49 98
- 0.28375 0 2 cbr 210 ------- 0 0.0 3.0 49 98
+ 0.28375 1 2 cbr 210 ------- 0 1.0 3.0 49 99
- 0.28375 1 2 cbr 210 ------- 0 1.0 3.0 49 99
+ 0.2875 0 2 cbr 210 ------- 0 0.0 3.0 50 100
- 0.2875 0 2 cbr 210 ------- 0 0.0 3.0 50 100
+ 0.2875 1 2 cbr 210 ------- 0 1.0 3.0 50 101
- 0.2875 1 2 cbr 210 ------- 0 1.0 3.0 50 101
+ 0.29125 0 2 cbr 210 ------- 0 0.0 3.0 51 102
- 0.29125 0 2 cbr 210 ------- 0 0.0 3.0 51 102
+ 0.29125 1 2 cbr 210 ------- 0 1.0 3.0 51 103
- 0.29125 1 2 cbr 210 ------- 0 1.0 3.0 51 103
+ 0.295 0 2 cbr 210 ------- 0 0.0 3.0 52 104
- 0.295 0 2 cbr 210 ------- 0 0.0 3.0 52 104
+ 0.295 1 2 cbr 210 ------- 0 1.0 3.0 52 105
- 0.295 1 2 cbr 210 ------- 0 1.0 3.0 52 105
+ 0.29875 0 2 cbr 210 ------- 0 0.0 3.0 53 106
- 0.29875 0 2 cbr 210 ------- 0 0.0 3.0 53 106
+ 0.29875 1 2 cbr 210 ------- 0 1.0 3.0 53 107
- 0.29875 1 2 cbr 210 ------- 0 1.0 3.0 53 107
+ 0.3025 0 2 cbr 210 ------- 0 0.0 3.0 54 108
- 0.3025 0 2 cbr 210 ------- 0 0.0 3.0 54 108
+ 0.3025 1 2 cbr 210 ------- 0 1.0 3.0 54 109
- 0.3025 1 2 cbr 210 ------- 0 1.0 3.0 54 109
+ 0.30625 0 2 cbr 210 ------- 0 0.0 3.0 55 110
- 0.30625 0 2 cbr 210 ------- 0 0.0 3.0 55 110
+ 0.30625 1 2 cbr 210 ------- 0 1.0 3.0 55 111
- 0.30625 1 2 cbr 210 ------- 0 1.0 3.0 55 111
+ 0.31 0 2 cbr 210 ------- 0 0.0 3.0 56 112
- 0.31 0 2 cbr 210 ------- 0 0.0 3.0 56 112
+ 0.31 1 2 cbr 210 ------- 0 1.0 3.0 56 113
- 0.31 1 2 cbr 210 ------- 0 1.0 3.0 56 113
+ 0.31375 0 2 cbr 210 ------- 0 0.0 3.0 57 114
- 0.31375 0 2 cbr 210 ------- 0 0.0 3.0 57 114
+ 0.31375 1 2 cbr 210 ------- 0 1.0 3.0 57 115
- 0.31375 1 2 cbr 210 ------- 0 1.0 3.0 57 115
+ 0.3175 0 2 cbr 210 ------- 0 0.0 3.0 58 116
- 0.3175 0 2 cbr 210 ------- 0 0.0 3.0 58 116
+ 0.3175 1 2 cbr 210 ------- 0 1.0 3.0 58 117
- 0.3175 1 2 cbr 210 ------- 0 1.0 3.0 58 117
+ 0.32125 0 2 cbr 210 ------- 0 0.0 3.0 59 118
- 0.32125 0 2 cbr 210 ------- 0 0.0 3.0 59 118
+ 0.32125 1 2 cbr 210 ------- 0 1.0 3.0 59 119
- 0.32125 1 2 cbr 210 ------- 0 1.0 3.0 59 119
+ 0.325 0 2 cbr 210 ------- 0 0.0 3.0 60 120
- 0.325 0 2 cbr 210 ------- 0 0.0 3.0 60 120
+ 0.325 1 2 cbr 210 ------- 0 1.0 3.0 60 121
- 0.325 1 2 cbr 210 ------- 0 1.0 3.0 60 121
+ 0.32875 0 2 cbr 210 ------- 0 0.0 3.0 61 122
- 0.32875 0 2 cbr 210 ------- 0 0.0 3.0 61 122
+ 0.32875 1 2 cbr 210 ------- 0 1.0 3.0 61 123
- 0.32875 1 2 cbr 210 ------- 0 1.0 3.0 61 123
+ 0.3325 0 2 cbr 210 ------- 0 0.0 3.0 62 124
- 0.3325 0 2 cbr 210 ------- 0 0.0 3.0 62 124
+ 0.3325 1 2 cbr 210 ------- 0 1.0 3.0 62 125
- 0.3325 1 2 cbr 210 ------- 0 1.0 3.0 62 125
+ 0.33625 0 2 cbr 210 ------- 0 0.0 3.0 63 126
- 0.33625 0 2 cbr 210 ------- 0 0.0 3.0 63 126
+ 0.33625 1 2 cbr 210 ------- 0 1.0 3.0 63 127
- 0.33625 1 2 cbr 210 ------- 0 1.0 3.0 63 127
+ 0.34 0 2 cbr 210 ------- 0 0.0 3.0 64 128
- 0.34 0 2 cbr 210 ------- 0 0.0 3.0 64 128
+ 0.34 1 2 cbr 210 ------- 0 1.0 3.0 64 129
- 0.34 1 2 cbr 210 ------- 0 1.0 3.0 64 129
+ 0.34375 0 2 cbr 210 ------- 0 0.0 3.0 65 130
- 0.34375 0 2 cbr 210 ------- 0 0.0 3.0 65 130
+ 0.34375 1 2 cbr 210 ------- 0 1.0 3.0 65 131
- 0.34375 1 2 cbr 210 ------- 0 1.0 3.0 65 131
+ 0.3475 0 2 cbr 210 ------- 0 0.0 3.0 66 132
- 0.3475 0 2 cbr 210 ------- 0 0.0 3.0 66 132
+ 0.3475 1 2 cbr 210 ------- 0 1.0 3.0 66 133
- 0.3475 1 2 cbr 210 ------- 0 1.0 3.0 66 133
+ 0.35125 0 2 cbr 210 ------- 0 0.0 3.0 67 134
- 0.35125 0 2 cbr 210 ------- 0 0.0 3.0 67 134
+ 0.35125 1 2 cbr 210 ------- 0 1.0 3.0 67 135
- 0.35125 1 2 cbr 210 ------- 0 1.0 3.0 67 135
+ 0.355 0 2 cbr 210 ------- 0 0.0 3.0 68 136
- 0.355 0 2 cbr 210 ------- 0 0.0 3.0 68 136
+ 0.355 1 2 cbr 210 ------- 0 1.0 3.0 68 137
- 0.355 1 2 cbr 210 ------- 0 1.0 3.0 68 137
+ 0.35875 0 2 cbr 210 ------- 0 0.0 3.0 69 138
- 0.35875 0 2 cbr 210 ------- 0 0.0 3.0 69 138
+ 0.35875 1 2 cbr 210 ------- 0 1.0 3.0 69 139
- 0.35875 1 2 cbr 210 ------- 0 1.0 3.0 69 139
+ 0.3625 0 2 cbr 210 ------- 0 0.0 3.0 70 140
- 0.3625 0 2 cbr 210 ------- 0 0.0 3.0 70 140
+ 0.3625 1 2 cbr 210 ------- 0 1.0 3.0 70 141
- 0.3625 1 2 cbr 210 ------- 0 1.0 3.0 70 141
+ 0.36625 0 2 cbr 210 ------- 0 0.0 3.0 71 142
- 0.36625 0 2 cbr 210 ------- 0 0.0 3.0 71 142
+ 0.36625 1 2 cbr 210 ------- 0 1.0 3.0 71 143
- 0.36625 1 2 cbr 210 ------- 0 1.0 3.0 71 143
+ 0.37 0 2 cbr 210 ------- 0 0.0 3.0 72 144
- 0.37 0 2 cbr 210 ------- 0 0.0 3.0 72 144
+ 0.37 1 2 cbr 210 ------- 0 1.0 3.0 72 145
- 0.37 1 2 cbr 210 ------- 0 1.0 3.0 72 145
+ 0.37375 0 2 cbr 210 ------- 0 0.0 3.0 73 146
- 0.37375 0 2 cbr 210 ------- 0 0.0 3.0 73 146
+ 0.37375 1 2 cbr 210 ------- 0 1.0 3.0 73 147
- 0.37375 1 2 cbr 210 ------- 0 1.0 3.0 73 147
+ 0.3775 0 2 cbr 210 ------- 0 0.0 3.0 74 148
- 0.3775 0 2 cbr 210 ------- 0 0.0 3.0 74 148
+ 0.3775 1 2 cbr 210 ------- 0 1.0 3.0 74 149
- 0.3775 1 2 cbr 210 ------- 0 1.0 3.0 74 149
+ 0.38125 0 2 cbr 210 ------- 0 0.0 3.0 75 150
- 0.38125 0 2 cbr 210 ------- 0 0.0 3.0 75 150
+ 0.38125 1 2 cbr 210 ------- 0 1.0 3.0 75 151
- 0.38125 1 2 cbr 210 ------- 0 1.0 3.0 75 151
+ 0.385 0 2 cbr 210 ------- 0 0.0 3.0 76 152
- 0.385 0 2 cbr 210 ------- 0 0.0 3.0 76 152
+ 0.385 1 2 cbr 210 ------- 0 1.0 3.0 76 153
- 0.385 1 2 cbr 210 ------- 0 1.0 3.0 76 153
+ 0.38875 0 2 cbr 210 ------- 0 0.0 3.0 77 154
- 0.38875 0 2 cbr 210 ------- 0 0.0 3.0 77 154
+ 0.38875 1 2 cbr 210 ------- 0 1.0 3.0 77 155
- 0.38875 1 2 cbr 210 ------- 0 1.0 3.0 77 155
+ 0.3925 0 2 cbr 210 ------- 0 0.0 3.0 78 156
- 0.3925 0 2 cbr 210 ------- 0 0.0 3.0 78 156
+ 0.3925 1 2 cbr 210 ------- 0 1.0 3.0 78 157
- 0.3925 1 2 cbr 210 ------- 0 1.0 3.0 78 157
+ 0.39625 0 2 cbr 210 ------- 0 0.0 3.0 79 158
- 0.39625 0 2 cbr 210 ------- 0 0.0 3.0 79 158
+ 0.39625 1 2 cbr 210 ------- 0 1.0 3.0 79 159
- 0.39625 1 2 cbr 210 ------- 0 1.0 3.0 79 159
+ 0.4 0 2 cbr 210 ------- 0 0.0 3.0 80 160
- 0.4 0 2 cbr 210 ------- 0 0.0 3.0 80 160
+ 0.4 1 2 cbr 210 ------- 0 1.0 3.0 80 161
- 0.4 1 2 cbr 210 ------- 0 1.0 3.0 80 161
r 0.40021 0 2 cbr 210 ------- 0 0.0 3.0 0 0
+ 0.40021 2 3 cbr 210 ------- 0 0.0 3.0 0 0
- 0.40021 2 3 cbr 210 ------- 0 0.0 3.0 0 0
r 0.40336 1 2 cbr 210 ------- 0 1.0 3.0 0 1
+ 0.40336 2 3 cbr 210 ------- 0 1.0 3.0 0 1
+ 0.40375 0 2 cbr 210 ------- 0 0.0 3.0 81 162
- 0.40375 0 2 cbr 210 ------- 0 0.0 3.0 81 162
+ 0.40375 1 2 cbr 210 ------- 0 1.0 3.0 81 163
- 0.40375 1 2 cbr 210 ------- 0 1.0 3.0 81 163
r 0.40396 0 2 cbr 210 ------- 0 0.0 3.0 1 2
+ 0.40396 2 3 cbr 210 ------- 0 0.0 3.0 1 2
r 0.40711 1 2 cbr 210 ------- 0 1.0 3.0 1 3
+ 0.40711 2 3 cbr 210 ------- 0 1.0 3.0 1 3
+ 0.4075 0 2 cbr 210 ------- 0 0.0 3.0 82 164
- 0.4075 0 2 cbr 210 ------- 0 0.0 3.0 82 164
+ 0.4075 1 2 cbr 210 ------- 0 1.0 3.0 82 165
- 0.4075 1 2 cbr 210 ------- 0 1.0 3.0 82 165
r 0.40771 0 2 cbr 210 ------- 0 0.0 3.0 2 4
+ 0.40771 2 3 cbr 210 ------- 0 0.0 3.0 2 4
- 0.40861 2 3 cbr 210 ------- 0 1.0 3.0 0 1
r 0.41086 1 2 cbr 210 ------- 0 1.0 3.0 2 5
+ 0.41086 2 3 cbr 210 ------- 0 1.0 3.0 2 5
+ 0.41125 0 2 cbr 210 ------- 0 0.0 3.0 83 166
- 0.41125 0 2 cbr 210 ------- 0 0.0 3.0 83 166
+ 0.41125 1 2 cbr 210 ------- 0 1.0 3.0 83 167
- 0.41125 1 2 cbr 210 ------- 0 1.0 3.0 83 167
r 0.41146 0 2 cbr 210 ------- 0 0.0 3.0 3 6
+ 0.41146 2 3 cbr 210 ------- 0 0.0 3.0 3 6
r 0.41461 1 2 cbr 210 ------- 0 1.0 3.0 3 7
+ 0.41461 2 3 cbr 210 ------- 0 1.0 3.0 3 7
+ 0.415 0 2 cbr 210 ------- 0 0.0 3.0 84 168
- 0.415 0 2 cbr 210 ------- 0 0.0 3.0 84 168
+ 0.415 1 2 cbr 210 ------- 0 1.0 3.0 84 169
- 0.415 1 2 cbr 210 ------- 0 1.0 3.0 84 169
r 0.41521 0 2 cbr 210 ------- 0 0.0 3.0 4 8
+ 0.41521 2 3 cbr 210 ------- 0 0.0 3.0 4 8
- 0.41701 2 3 cbr 210 ------- 0 0.0 3.0 1 2
r 0.41836 1 2 cbr 210 ------- 0 1.0 3.0 4 9
+ 0.41836 2 3 cbr 210 ------- 0 1.0 3.0 4 9
+ 0.41875 0 2 cbr 210 ------- 0 0.0 3.0 85 170
- 0.41875 0 2 cbr 210 ------- 0 0.0 3.0 85 170
+ 0.41875 1 2 cbr 210 ------- 0 1.0 3.0 85 171
- 0.41875 1 2 cbr 210 ------- 0 1.0 3.0 85 171
r 0.41896 0 2 cbr 210 ------- 0 0.0 3.0 5 10
+ 0.41896 2 3 cbr 210 ------- 0 0.0 3.0 5 10
r 0.42211 1 2 cbr 210 ------- 0 1.0 3.0 5 11
+ 0.42211 2 3 cbr 210 ------- 0 1.0 3.0 5 11
+ 0.4225 0 2 cbr 210 ------- 0 0.0 3.0 86 172
- 0.4225 0 2 cbr 210 ------- 0 0.0 3.0 86 172
+ 0.4225 1 2 cbr 210 ------- 0 1.0 3.0 86 173
- 0.4225 1 2 cbr 210 ------- 0 1.0 3.0 86 173
r 0.42271 0 2 cbr 210 ------- 0 0.0 3.0 6 12
+ 0.42271 2 3 cbr 210 ------- 0 0.0 3.0 6 12
- 0.42541 2 3 cbr 210 ------- 0 1.0 3.0 1 3
r 0.42586 1 2 cbr 210 ------- 0 1.0 3.0 6 13
+ 0.42586 2 3 cbr 210 ------- 0 1.0 3.0 6 13
+ 0.42625 0 2 cbr 210 ------- 0 0.0 3.0 87 174
- 0.42625 0 2 cbr 210 ------- 0 0.0 3.0 87 174
+ 0.42625 1 2 cbr 210 ------- 0 1.0 3.0 87 175
- 0.42625 1 2 cbr 210 ------- 0 1.0 3.0 87 175
r 0.42646 0 2 cbr 210 ------- 0 0.0 3.0 7 14
+ 0.42646 2 3 cbr 210 ------- 0 0.0 3.0 7 14
r 0.42961 1 2 cbr 210 ------- 0 1.0 3.0 7 15
+ 0.42961 2 3 cbr 210 ------- 0 1.0 3.0 7 15
+ 0.43 0 2 cbr 210 ------- 0 0.0 3.0 88 176
- 0.43 0 2 cbr 210 ------- 0 0.0 3.0 88 176
+ 0.43 1 2 cbr 210 ------- 0 1.0 3.0 88 177
- 0.43 1 2 cbr 210 ------- 0 1.0 3.0 88 177
r 0.43021 0 2 cbr 210 ------- 0 0.0 3.0 8 16
+ 0.43021 2 3 cbr 210 ------- 0 0.0 3.0 8 16
r 0.43336 1 2 cbr 210 ------- 0 1.0 3.0 8 17
+ 0.43336 2 3 cbr 210 ------- 0 1.0 3.0 8 17
+ 0.43375 0 2 cbr 210 ------- 0 0.0 3.0 89 178
- 0.43375 0 2 cbr 210 ------- 0 0.0 3.0 89 178
+ 0.43375 1 2 cbr 210 ------- 0 1.0 3.0 89 179
- 0.43375 1 2 cbr 210 ------- 0 1.0 3.0 89 179
- 0.43381 2 3 cbr 210 ------- 0 0.0 3.0 2 4
r 0.43396 0 2 cbr 210 ------- 0 0.0 3.0 9 18
+ 0.43396 2 3 cbr 210 ------- 0 0.0 3.0 9 18
r 0.43711 1 2 cbr 210 ------- 0 1.0 3.0 9 19
+ 0.43711 2 3 cbr 210 ------- 0 1.0 3.0 9 19
+ 0.4375 0 2 cbr 210 ------- 0 0.0 3.0 90 180
- 0.4375 0 2 cbr 210 ------- 0 0.0 3.0 90 180
+ 0.4375 1 2 cbr 210 ------- 0 1.0 3.0 90 181
- 0.4375 1 2 cbr 210 ------- 0 1.0 3.0 90 181
r 0.43771 0 2 cbr 210 ------- 0 0.0 3.0 10 20
+ 0.43771 2 3 cbr 210 ------- 0 0.0 3.0 10 20
r 0.44086 1 2 cbr 210 ------- 0 1.0 3.0 10 21
+ 0.44086 2 3 cbr 210 ------- 0 1.0 3.0 10 21
+ 0.44125 0 2 cbr 210 ------- 0 0.0 3.0 91 182
- 0.44125 0 2 cbr 210 ------- 0 0.0 3.0 91 182
+ 0.44125 1 2 cbr 210 ------- 0 1.0 3.0 91 183
- 0.44125 1 2 cbr 210 ------- 0 1.0 3.0 91 183
r 0.44146 0 2 cbr 210 ------- 0 0.0 3.0 11 22
+ 0.44146 2 3 cbr 210 ------- 0 0.0 3.0 11 22
- 0.44221 2 3 cbr 210 ------- 0 1.0 3.0 2 5
r 0.44461 1 2 cbr 210 ------- 0 1.0 3.0 11 23
+ 0.44461 2 3 cbr 210 ------- 0 1.0 3.0 11 23
+ 0.445 0 2 cbr 210 ------- 0 0.0 3.0 92 184
- 0.445 0 2 cbr 210 ------- 0 0.0 3.0 92 184
+ 0.445 1 2 cbr 210 ------- 0 1.0 3.0 92 185
- 0.445 1 2 cbr 210 ------- 0 1.0 3.0 92 185
r 0.44521 0 2 cbr 210 ------- 0 0.0 3.0 12 24
+ 0.44521 2 3 cbr 210 ------- 0 0.0 3.0 12 24
r 0.44836 1 2 cbr 210 ------- 0 1.0 3.0 12 25
+ 0.44836 2 3 cbr 210 ------- 0 1.0 3.0 12 25
+ 0.44875 0 2 cbr 210 ------- 0 0.0 3.0 93 186
- 0.44875 0 2 cbr 210 ------- 0 0.0 3.0 93 186
+ 0.44875 1 2 cbr 210 ------- 0 1.0 3.0 93 187
- 0.44875 1 2 cbr 210 ------- 0 1.0 3.0 93 187
r 0.44896 0 2 cbr 210 ------- 0 0.0 3.0 13 26
+ 0.44896 2 3 cbr 210 ------- 0 0.0 3.0 13 26
- 0.45061 2 3 cbr 210 ------- 0 0.0 3.0 3 6
r 0.45211 1 2 cbr 210 ------- 0 1.0 3.0 13 27
+ 0.45211 2 3 cbr 210 ------- 0 1.0 3.0 13 27
+ 0.4525 0 2 cbr 210 ------- 0 0.0 3.0 94 188
- 0.4525 0 2 cbr 210 ------- 0 0.0 3.0 94 188
+ 0.4525 1 2 cbr 210 ------- 0 1.0 3.0 94 189
- 0.4525 1 2 cbr 210 ------- 0 1.0 3.0 94 189
r 0.45271 0 2 cbr 210 ------- 0 0.0 3.0 14 28
+ 0.45271 2 3 cbr 210 ------- 0 0.0 3.0 14 28
r 0.45586 1 2 cbr 210 ------- 0 1.0 3.0 14 29
+ 0.45586 2 3 cbr 210 ------- 0 1.0 3.0 14 29
+ 0.45625 0 2 cbr 210 ------- 0 0.0 3.0 95 190
- 0.45625 0 2 cbr 210 ------- 0 0.0 3.0 95 190
+ 0.45625 1 2 cbr 210 ------- 0 1.0 3.0 95 191
- 0.45625 1 2 cbr 210 ------- 0 1.0 3.0 95 191
r 0.45646 0 2 cbr 210 ------- 0 0.0 3.0 15 30
+ 0.45646 2 3 cbr 210 ------- 0 0.0 3.0 15 30
- 0.45901 2 3 cbr 210 ------- 0 1.0 3.0 3 7
r 0.45961 1 2 cbr 210 ------- 0 1.0 3.0 15 31
+ 0.45961 2 3 cbr 210 ------- 0 1.0 3.0 15 31
+ 0.46 0 2 cbr 210 ------- 0 0.0 3.0 96 192
- 0.46 0 2 cbr 210 ------- 0 0.0 3.0 96 192
+ 0.46 1 2 cbr 210 ------- 0 1.0 3.0 96 193
- 0.46 1 2 cbr 210 ------- 0 1.0 3.0 96 193
r 0.46021 0 2 cbr 210 ------- 0 0.0 3.0 16 32
+ 0.46021 2 3 cbr 210 ------- 0 0.0 3.0 16 32
r 0.46336 1 2 cbr 210 ------- 0 1.0 3.0 16 33
+ 0.46336 2 3 cbr 210 ------- 0 1.0 3.0 16 33
+ 0.46375 0 2 cbr 210 ------- 0 0.0 3.0 97 194
- 0.46375 0 2 cbr 210 ------- 0 0.0 3.0 97 194
+ 0.46375 1 2 cbr 210 ------- 0 1.0 3.0 97 195
- 0.46375 1 2 cbr 210 ------- 0 1.0 3.0 97 195
r 0.46396 0 2 cbr 210 ------- 0 0.0 3.0 17 34
+ 0.46396 2 3 cbr 210 ------- 0 0.0 3.0 17 34
r 0.46711 1 2 cbr 210 ------- 0 1.0 3.0 17 35
+ 0.46711 2 3 cbr 210 ------- 0 1.0 3.0 17 35
- 0.46741 2 3 cbr 210 ------- 0 0.0 3.0 4 8
+ 0.4675 0 2 cbr 210 ------- 0 0.0 3.0 98 196
- 0.4675 0 2 cbr 210 ------- 0 0.0 3.0 98 196
+ 0.4675 1 2 cbr 210 ------- 0 1.0 3.0 98 197
- 0.4675 1 2 cbr 210 ------- 0 1.0 3.0 98 197
r 0.46771 0 2 cbr 210 ------- 0 0.0 3.0 18 36
+ 0.46771 2 3 cbr 210 ------- 0 0.0 3.0 18 36
r 0.47086 1 2 cbr 210 ------- 0 1.0 3.0 18 37
+ 0.47086 2 3 cbr 210 ------- 0 1.0 3.0 18 37
+ 0.47125 0 2 cbr 210 ------- 0 0.0 3.0 99 198
- 0.47125 0 2 cbr 210 ------- 0 0.0 3.0 99 198
+ 0.47125 1 2 cbr 210 ------- 0 1.0 3.0 99 199
- 0.47125 1 2 cbr 210 ------- 0 1.0 3.0 99 199
r 0.47146 0 2 cbr 210 ------- 0 0.0 3.0 19 38
+ 0.47146 2 3 cbr 210 ------- 0 0.0 3.0 19 38
r 0.47461 1 2 cbr 210 ------- 0 1.0 3.0 19 39
+ 0.47461 2 3 cbr 210 ------- 0 1.0 3.0 19 39
+ 0.475 0 2 cbr 210 ------- 0 0.0 3.0 100 200
- 0.475 0 2 cbr 210 ------- 0 0.0 3.0 100 200
+ 0.475 1 2 cbr 210 ------- 0 1.0 3.0 100 201
- 0.475 1 2 cbr 210 ------- 0 1.0 3.0 100 201
r 0.47521 0 2 cbr 210 ------- 0 0.0 3.0 20 40
+ 0.47521 2 3 cbr 210 ------- 0 0.0 3.0 20 40
- 0.47581 2 3 cbr 210 ------- 0 1.0 3.0 4 9
r 0.47836 1 2 cbr 210 ------- 0 1.0 3.0 20 41
+ 0.47836 2 3 cbr 210 ------- 0 1.0 3.0 20 41
+ 0.47875 0 2 cbr 210 ------- 0 0.0 3.0 101 202
- 0.47875 0 2 cbr 210 ------- 0 0.0 3.0 101 202
+ 0.47875 1 2 cbr 210 ------- 0 1.0 3.0 101 203
- 0.47875 1 2 cbr 210 ------- 0 1.0 3.0 101 203
r 0.47896 0 2 cbr 210 ------- 0 0.0 3.0 21 42
+ 0.47896 2 3 cbr 210 ------- 0 0.0 3.0 21 42
r 0.48211 1 2 cbr 210 ------- 0 1.0 3.0 21 43
+ 0.48211 2 3 cbr 210 ------- 0 1.0 3.0 21 43
+ 0.4825 0 2 cbr 210 ------- 0 0.0 3.0 102 204
- 0.4825 0 2 cbr 210 ------- 0 0.0 3.0 102 204
+ 0.4825 1 2 cbr 210 ------- 0 1.0 3.0 102 205
- 0.4825 1 2 cbr 210 ------- 0 1.0 3.0 102 205
r 0.48271 0 2 cbr 210 ------- 0 0.0 3.0 22 44
+ 0.48271 2 3 cbr 210 ------- 0 0.0 3.0 22 44
- 0.48421 2 3 cbr 210 ------- 0 0.0 3.0 5 10
r 0.48586 1 2 cbr 210 ------- 0 1.0 3.0 22 45
+ 0.48586 2 3 cbr 210 ------- 0 1.0 3.0 22 45
+ 0.48625 0 2 cbr 210 ------- 0 0.0 3.0 103 206
- 0.48625 0 2 cbr 210 ------- 0 0.0 3.0 103 206
+ 0.48625 1 2 cbr 210 ------- 0 1.0 3.0 103 207
- 0.48625 1 2 cbr 210 ------- 0 1.0 3.0 103 207
r 0.48646 0 2 cbr 210 ------- 0 0.0 3.0 23 46
+ 0.48646 2 3 cbr 210 ------- 0 0.0 3.0 23 46
r 0.48961 1 2 cbr 210 ------- 0 1.0 3.0 23 47
+ 0.48961 2 3 cbr 210 ------- 0 1.0 3.0 23 47
+ 0.49 0 2 cbr 210 ------- 0 0.0 3.0 104 208
- 0.49 0 2 cbr 210 ------- 0 0.0 3.0 104 208
+ 0.49 1 2 cbr 210 ------- 0 1.0 3.0 104 209
- 0.49 1 2 cbr 210 ------- 0 1.0 3.0 104 209
r 0.49021 0 2 cbr 210 ------- 0 0.0 3.0 24 48
+ 0.49021 2 3 cbr 210 ------- 0 0.0 3.0 24 48
- 0.49261 2 3 cbr 210 ------- 0 1.0 3.0 5 11
r 0.49336 1 2 cbr 210 ------- 0 1.0 3.0 24 49
+ 0.49336 2 3 cbr 210 ------- 0 1.0 3.0 24 49
+ 0.49375 0 2 cbr 210 ------- 0 0.0 3.0 105 210
- 0.49375 0 2 cbr 210 ------- 0 0.0 3.0 105 210
+ 0.49375 1 2 cbr 210 ------- 0 1.0 3.0 105 211
- 0.49375 1 2 cbr 210 ------- 0 1.0 3.0 105 211
r 0.49396 0 2 cbr 210 ------- 0 0.0 3.0 25 50
+ 0.49396 2 3 cbr 210 ------- 0 0.0 3.0 25 50
r 0.49711 1 2 cbr 210 ------- 0 1.0 3.0 25 51
+ 0.49711 2 3 cbr 210 ------- 0 1.0 3.0 25 51
+ 0.4975 0 2 cbr 210 ------- 0 0.0 3.0 106 212
- 0.4975 0 2 cbr 210 ------- 0 0.0 3.0 106 212
+ 0.4975 1 2 cbr 210 ------- 0 1.0 3.0 106 213
- 0.4975 1 2 cbr 210 ------- 0 1.0 3.0 106 213
r 0.49771 0 2 cbr 210 ------- 0 0.0 3.0 26 52
+ 0.49771 2 3 cbr 210 ------- 0 0.0 3.0 26 52
r 0.50086 1 2 cbr 210 ------- 0 1.0 3.0 26 53
+ 0.50086 2 3 cbr 210 ------- 0 1.0 3.0 26 53
- 0.50101 2 3 cbr 210 ------- 0 0.0 3.0 6 12
+ 0.50125 0 2 cbr 210 ------- 0 0.0 3.0 107 214
- 0.50125 0 2 cbr 210 ------- 0 0.0 3.0 107 214
+ 0.50125 1 2 cbr 210 ------- 0 1.0 3.0 107 215
- 0.50125 1 2 cbr 210 ------- 0 1.0 3.0 107 215
r 0.50146 0 2 cbr 210 ------- 0 0.0 3.0 27 54
+ 0.50146 2 3 cbr 210 ------- 0 0.0 3.0 27 54
r 0.50461 1 2 cbr 210 ------- 0 1.0 3.0 27 55
+ 0.50461 2 3 cbr 210 ------- 0 1.0 3.0 27 55
+ 0.505 0 2 cbr 210 ------- 0 0.0 3.0 108 216
- 0.505 0 2 cbr 210 ------- 0 0.0 3.0 108 216
+ 0.505 1 2 cbr 210 ------- 0 1.0 3.0 108 217
- 0.505 1 2 cbr 210 ------- 0 1.0 3.0 108 217
r 0.50521 0 2 cbr 210 ------- 0 0.0 3.0 28 56
+ 0.50521 2 3 cbr 210 ------- 0 0.0 3.0 28 56
r 0.50836 1 2 cbr 210 ------- 0 1.0 3.0 28 57
+ 0.50836 2 3 cbr 210 ------- 0 1.0 3.0 28 57
+ 0.50875 0 2 cbr 210 ------- 0 0.0 3.0 109 218
- 0.50875 0 2 cbr 210 ------- 0 0.0 3.0 109 218
+ 0.50875 1 2 cbr 210 ------- 0 1.0 3.0 109 219
- 0.50875 1 2 cbr 210 ------- 0 1.0 3.0 109 219
r 0.50896 0 2 cbr 210 ------- 0 0.0 3.0 29 58
+ 0.50896 2 3 cbr 210 ------- 0 0.0 3.0 29 58
- 0.50941 2 3 cbr 210 ------- 0 1.0 3.0 6 13
r 0.51211 1 2 cbr 210 ------- 0 1.0 3.0 29 59
+ 0.51211 2 3 cbr 210 ------- 0 1.0 3.0 29 59
+ 0.5125 0 2 cbr 210 ------- 0 0.0 3.0 110 220
- 0.5125 0 2 cbr 210 ------- 0 0.0 3.0 110 220
+ 0.5125 1 2 cbr 210 ------- 0 1.0 3.0 110 221
- 0.5125 1 2 cbr 210 ------- 0 1.0 3.0 110 221
r 0.51271 0 2 cbr 210 ------- 0 0.0 3.0 30 60
+ 0.51271 2 3 cbr 210 ------- 0 0.0 3.0 30 60
r 0.51586 1 2 cbr 210 ------- 0 1.0 3.0 30 61
+ 0.51586 2 3 cbr 210 ------- 0 1.0 3.0 30 61
+ 0.51625 0 2 cbr 210 ------- 0 0.0 3.0 111 222
- 0.51625 0 2 cbr 210 ------- 0 0.0 3.0 111 222
+ 0.51625 1 2 cbr 210 ------- 0 1.0 3.0 111 223
- 0.51625 1 2 cbr 210 ------- 0 1.0 3.0 111 223
r 0.51646 0 2 cbr 210 ------- 0 0.0 3.0 31 62
+ 0.51646 2 3 cbr 210 ------- 0 0.0 3.0 31 62
- 0.51781 2 3 cbr 210 ------- 0 0.0 3.0 7 14
r 0.51961 1 2 cbr 210 ------- 0 1.0 3.0 31 63
+ 0.51961 2 3 cbr 210 ------- 0 1.0 3.0 31 63
+ 0.52 0 2 cbr 210 ------- 0 0.0 3.0 112 224
- 0.52 0 2 cbr 210 ------- 0 0.0 3.0 112 224
+ 0.52 1 2 cbr 210 ------- 0 1.0 3.0 112 225
- 0.52 1 2 cbr 210 ------- 0 1.0 3.0 112 225
r 0.52021 0 2 cbr 210 ------- 0 0.0 3.0 32 64
+ 0.52021 2 3 cbr 210 ------- 0 0.0 3.0 32 64
d 0.52021 2 3 cbr 210 ------- 0 0.0 3.0 32 64
r 0.52336 1 2 cbr 210 ------- 0 1.0 3.0 32 65
+ 0.52336 2 3 cbr 210 ------- 0 1.0 3.0 32 65
d 0.52336 2 3 cbr 210 ------- 0 1.0 3.0 32 65
+ 0.52375 0 2 cbr 210 ------- 0 0.0 3.0 113 226
- 0.52375 0 2 cbr 210 ------- 0 0.0 3.0 113 226
+ 0.52375 1 2 cbr 210 ------- 0 1.0 3.0 113 227
- 0.52375 1 2 cbr 210 ------- 0 1.0 3.0 113 227
r 0.52396 0 2 cbr 210 ------- 0 0.0 3.0 33 66
+ 0.52396 2 3 cbr 210 ------- 0 0.0 3.0 33 66
d 0.52396 2 3 cbr 210 ------- 0 0.0 3.0 33 66
- 0.52621 2 3 cbr 210 ------- 0 1.0 3.0 7 15
r 0.52711 1 2 cbr 210 ------- 0 1.0 3.0 33 67
+ 0.52711 2 3 cbr 210 ------- 0 1.0 3.0 33 67
+ 0.5275 0 2 cbr 210 ------- 0 0.0 3.0 114 228
- 0.5275 0 2 cbr 210 ------- 0 0.0 3.0 114 228
+ 0.5275 1 2 cbr 210 ------- 0 1.0 3.0 114 229
- 0.5275 1 2 cbr 210 ------- 0 1.0 3.0 114 229
r 0.52771 0 2 cbr 210 ------- 0 0.0 3.0 34 68
+ 0.52771 2 3 cbr 210 ------- 0 0.0 3.0 34 68
d 0.52771 2 3 cbr 210 ------- 0 0.0 3.0 34 68
r 0.53086 1 2 cbr 210 ------- 0 1.0 3.0 34 69
+ 0.53086 2 3 cbr 210 ------- 0 1.0 3.0 34 69
d 0.53086 2 3 cbr 210 ------- 0 1.0 3.0 34 69
+ 0.53125 0 2 cbr 210 ------- 0 0.0 3.0 115 230
- 0.53125 0 2 cbr 210 ------- 0 0.0 3.0 115 230
+ 0.53125 1 2 cbr 210 ------- 0 1.0 3.0 115 231
- 0.53125 1 2 cbr 210 ------- 0 1.0 3.0 115 231
r 0.53146 0 2 cbr 210 ------- 0 0.0 3.0 35 70
+ 0.53146 2 3 cbr 210 ------- 0 0.0 3.0 35 70
d 0.53146 2 3 cbr 210 ------- 0 0.0 3.0 35 70
r 0.53461 1 2 cbr 210 ------- 0 1.0 3.0 35 71
+ 0.53461 2 3 cbr 210 ------- 0 1.0 3.0 35 71
d 0.53461 2 3 cbr 210 ------- 0 1.0 3.0 35 71
- 0.53461 2 3 cbr 210 ------- 0 0.0 3.0 8 16
+ 0.535 0 2 cbr 210 ------- 0 0.0 3.0 116 232
- 0.535 0 2 cbr 210 ------- 0 0.0 3.0 116 232
+ 0.535 1 2 cbr 210 ------- 0 1.0 3.0 116 233
- 0.535 1 2 cbr 210 ------- 0 1.0 3.0 116 233
r 0.53521 0 2 cbr 210 ------- 0 0.0 3.0 36 72
+ 0.53521 2 3 cbr 210 ------- 0 0.0 3.0 36 72
r 0.53836 1 2 cbr 210 ------- 0 1.0 3.0 36 73
+ 0.53836 2 3 cbr 210 ------- 0 1.0 3.0 36 73
d 0.53836 2 3 cbr 210 ------- 0 1.0 3.0 36 73
+ 0.53875 0 2 cbr 210 ------- 0 0.0 3.0 117 234
- 0.53875 0 2 cbr 210 ------- 0 0.0 3.0 117 234
+ 0.53875 1 2 cbr 210 ------- 0 1.0 3.0 117 235
- 0.53875 1 2 cbr 210 ------- 0 1.0 3.0 117 235
r 0.53896 0 2 cbr 210 ------- 0 0.0 3.0 37 74
+ 0.53896 2 3 cbr 210 ------- 0 0.0 3.0 37 74
d 0.53896 2 3 cbr 210 ------- 0 0.0 3.0 37 74
r 0.54211 1 2 cbr 210 ------- 0 1.0 3.0 37 75
+ 0.54211 2 3 cbr 210 ------- 0 1.0 3.0 37 75
d 0.54211 2 3 cbr 210 ------- 0 1.0 3.0 37 75
+ 0.5425 0 2 cbr 210 ------- 0 0.0 3.0 118 236
- 0.5425 0 2 cbr 210 ------- 0 0.0 3.0 118 236
+ 0.5425 1 2 cbr 210 ------- 0 1.0 3.0 118 237
- 0.5425 1 2 cbr 210 ------- 0 1.0 3.0 118 237
r 0.54271 0 2 cbr 210 ------- 0 0.0 3.0 38 76
+ 0.54271 2 3 cbr 210 ------- 0 0.0 3.0 38 76