V -t * -v 1.0a5 -a 0
A -t * -n 1 -p 0 -o 0x7fffffff -c 30 -a 1
A -t * -h 1 -m 1073741823 -s 0
n -t * -a 4 -s 4 -S UP -v circle -c black -i black
n -t * -a 0 -s 0 -S UP -v circle -c black -i black
n -t * -a 5 -s 5 -S UP -v circle -c black -i black
n -t * -a 1 -s 1 -S UP -v circle -c black -i black
n -t * -a 2 -s 2 -S UP -v circle -c black -i black
n -t * -a 3 -s 3 -S UP -v circle -c black -i black
l -t * -s 0 -d 1 -S UP -r 10000 -D 0.01 -c black
l -t * -s 1 -d 2 -S UP -r 10000 -D 0.01 -c black
l -t * -s 2 -d 3 -S UP -r 10000 -D 0.01 -c black
l -t * -s 3 -d 4 -S UP -r 10000 -D 0.01 -c black
l -t * -s 4 -d 5 -S UP -r 10000 -D 0.01 -c black
l -t * -s 0 -d 5 -S UP -r 10000 -D 0.01 -c black
+ -t 0.2 -s 0 -d 5 -p ping -e 64 -c 0 -i 0 -a 0 -x {0.0 5.0 -1 ------- null}
- -t 0.2 -s 0 -d 5 -p ping -e 64 -c 0 -i 0 -a 0 -x {0.0 5.0 -1 ------- null}
h -t 0.2 -s 0 -d 5 -p ping -e 64 -c 0 -i 0 -a 0 -x {0.0 5.0 -1 ------- null}
+ -t 0.2 -s 1 -d 2 -p ping -e 64 -c 0 -i 1 -a 0 -x {1.0 2.0 -1 ------- null}
- -t 0.2 -s 1 -d 2 -p ping -e 64 -c 0 -i 1 -a 0 -x {1.0 2.0 -1 ------- null}
h -t 0.2 -s 1 -d 2 -p ping -e 64 -c 0 -i 1 -a 0 -x {1.0 2.0 -1 ------- null}
+ -t 0.2 -s 2 -d 3 -p ping -e 64 -c 0 -i 2 -a 0 -x {2.0 3.0 -1 ------- null}
- -t 0.2 -s 2 -d 3 -p ping -e 64 -c 0 -i 2 -a 0 -x {2.0 3.0 -1 ------- null}
h -t 0.2 -s 2 -d 3 -p ping -e 64 -c 0 -i 2 -a 0 -x {2.0 3.0 -1 ------- null}
+ -t 0.2 -s 3 -d 4 -p ping -e 64 -c 0 -i 3 -a 0 -x {3.0 4.0 -1 ------- null}
- -t 0.2 -s 3 -d 4 -p ping -e 64 -c 0 -i 3 -a 0 -x {3.0 4.0 -1 ------- null}
h -t 0.2 -s 3 -d 4 -p ping -e 64 -c 0 -i 3 -a 0 -x {3.0 4.0 -1 ------- null}
+ -t 0.2 -s 4 -d 5 -p ping -e 64 -c 0 -i 4 -a 0 -x {4.0 5.0 -1 ------- null}
- -t 0.2 -s 4 -d 5 -p ping -e 64 -c 0 -i 4 -a 0 -x {4.0 5.0 -1 ------- null}
h -t 0.2 -s 4 -d 5 -p ping -e 64 -c 0 -i 4 -a 0 -x {4.0 5.0 -1 ------- null}
+ -t 0.2 -s 5 -d 0 -p ping -e 64 -c 0 -i 5 -a 0 -x {5.0 0.0 -1 ------- null}
- -t 0.2 -s 5 -d 0 -p ping -e 64 -c 0 -i 5 -a 0 -x {5.0 0.0 -1 ------- null}
h -t 0.2 -s 5 -d 0 -p ping -e 64 -c 0 -i 5 -a 0 -x {5.0 0.0 -1 ------- null}
+ -t 0.2 -s 0 -d 5 -p ping -e 64 -c 0 -i 6 -a 0 -x {0.0 5.0 -1 ------- null}
+ -t 0.2 -s 1 -d 2 -p ping -e 64 -c 0 -i 7 -a 0 -x {1.0 2.0 -1 ------- null}
+ -t 0.2 -s 2 -d 3 -p ping -e 64 -c 0 -i 8 -a 0 -x {2.0 3.0 -1 ------- null}
+ -t 0.2 -s 3 -d 4 -p ping -e 64 -c 0 -i 9 -a 0 -x {3.0 4.0 -1 ------- null}
+ -t 0.2 -s 4 -d 5 -p ping -e 64 -c 0 -i 10 -a 0 -x {4.0 5.0 -1 ------- null}
+ -t 0.2 -s 5 -d 0 -p ping -e 64 -c 0 -i 11 -a 0 -x {5.0 0.0 -1 ------- null}
+ -t 0.2 -s 0 -d 5 -p ping -e 64 -c 0 -i 12 -a 0 -x {0.0 5.0 -1 ------- null}
+ -t 0.2 -s 1 -d 2 -p ping -e 64 -c 0 -i 13 -a 0 -x {1.0 2.0 -1 ------- null}
+ -t 0.2 -s 2 -d 3 -p ping -e 64 -c 0 -i 14 -a 0 -x {2.0 3.0 -1 ------- null}
+ -t 0.2 -s 3 -d 4 -p ping -e 64 -c 0 -i 15 -a 0 -x {3.0 4.0 -1 ------- null}
+ -t 0.2 -s 4 -d 5 -p ping -e 64 -c 0 -i 16 -a 0 -x {4.0 5.0 -1 ------- null}
+ -t 0.2 -s 5 -d 0 -p ping -e 64 -c 0 -i 17 -a 0 -x {5.0 0.0 -1 ------- null}
+ -t 0.2 -s 0 -d 5 -p ping -e 64 -c 0 -i 18 -a 0 -x {0.0 5.0 -1 ------- null}
+ -t 0.2 -s 1 -d 2 -p ping -e 64 -c 0 -i 19 -a 0 -x {1.0 2.0 -1 ------- null}
+ -t 0.2 -s 2 -d 3 -p ping -e 64 -c 0 -i 20 -a 0 -x {2.0 3.0 -1 ------- null}
+ -t 0.2 -s 3 -d 4 -p ping -e 64 -c 0 -i 21 -a 0 -x {3.0 4.0 -1 ------- null}
+ -t 0.2 -s 4 -d 5 -p ping -e 64 -c 0 -i 22 -a 0 -x {4.0 5.0 -1 ------- null}
+ -t 0.2 -s 5 -d 0 -p ping -e 64 -c 0 -i 23 -a 0 -x {5.0 0.0 -1 ------- null}
+ -t 0.2 -s 0 -d 5 -p ping -e 64 -c 0 -i 24 -a 0 -x {0.0 5.0 -1 ------- null}
+ -t 0.2 -s 1 -d 2 -p ping -e 64 -c 0 -i 25 -a 0 -x {1.0 2.0 -1 ------- null}
+ -t 0.2 -s 2 -d 3 -p ping -e 64 -c 0 -i 26 -a 0 -x {2.0 3.0 -1 ------- null}
+ -t 0.2 -s 3 -d 4 -p ping -e 64 -c 0 -i 27 -a 0 -x {3.0 4.0 -1 ------- null}
+ -t 0.2 -s 4 -d 5 -p ping -e 64 -c 0 -i 28 -a 0 -x {4.0 5.0 -1 ------- null}
+ -t 0.2 -s 5 -d 0 -p ping -e 64 -c 0 -i 29 -a 0 -x {5.0 0.0 -1 ------- null}
+ -t 0.2 -s 0 -d 5 -p ping -e 64 -c 0 -i 30 -a 0 -x {0.0 5.0 -1 ------- null}
+ -t 0.2 -s 1 -d 2 -p ping -e 64 -c 0 -i 31 -a 0 -x {1.0 2.0 -1 ------- null}
+ -t 0.2 -s 2 -d 3 -p ping -e 64 -c 0 -i 32 -a 0 -x {2.0 3.0 -1 ------- null}
+ -t 0.2 -s 3 -d 4 -p ping -e 64 -c 0 -i 33 -a 0 -x {3.0 4.0 -1 ------- null}
+ -t 0.2 -s 4 -d 5 -p ping -e 64 -c 0 -i 34 -a 0 -x {4.0 5.0 -1 ------- null}
+ -t 0.2 -s 5 -d 0 -p ping -e 64 -c 0 -i 35 -a 0 -x {5.0 0.0 -1 ------- null}
+ -t 0.2 -s 0 -d 5 -p ping -e 64 -c 0 -i 36 -a 0 -x {0.0 5.0 -1 ------- null}
+ -t 0.2 -s 1 -d 2 -p ping -e 64 -c 0 -i 37 -a 0 -x {1.0 2.0 -1 ------- null}
+ -t 0.2 -s 2 -d 3 -p ping -e 64 -c 0 -i 38 -a 0 -x {2.0 3.0 -1 ------- null}
+ -t 0.2 -s 3 -d 4 -p ping -e 64 -c 0 -i 39 -a 0 -x {3.0 4.0 -1 ------- null}
+ -t 0.2 -s 4 -d 5 -p ping -e 64 -c 0 -i 40 -a 0 -x {4.0 5.0 -1 ------- null}
+ -t 0.2 -s 5 -d 0 -p ping -e 64 -c 0 -i 41 -a 0 -x {5.0 0.0 -1 ------- null}
+ -t 0.2 -s 0 -d 5 -p ping -e 64 -c 0 -i 42 -a 0 -x {0.0 5.0 -1 ------- null}
+ -t 0.2 -s 1 -d 2 -p ping -e 64 -c 0 -i 43 -a 0 -x {1.0 2.0 -1 ------- null}
+ -t 0.2 -s 2 -d 3 -p ping -e 64 -c 0 -i 44 -a 0 -x {2.0 3.0 -1 ------- null}
+ -t 0.2 -s 3 -d 4 -p ping -e 64 -c 0 -i 45 -a 0 -x {3.0 4.0 -1 ------- null}
+ -t 0.2 -s 4 -d 5 -p ping -e 64 -c 0 -i 46 -a 0 -x {4.0 5.0 -1 ------- null}
+ -t 0.2 -s 5 -d 0 -p ping -e 64 -c 0 -i 47 -a 0 -x {5.0 0.0 -1 ------- null}
+ -t 0.2 -s 0 -d 5 -p ping -e 64 -c 0 -i 48 -a 0 -x {0.0 5.0 -1 ------- null}
+ -t 0.2 -s 1 -d 2 -p ping -e 64 -c 0 -i 49 -a 0 -x {1.0 2.0 -1 ------- null}
+ -t 0.2 -s 2 -d 3 -p ping -e 64 -c 0 -i 50 -a 0 -x {2.0 3.0 -1 ------- null}
+ -t 0.2 -s 3 -d 4 -p ping -e 64 -c 0 -i 51 -a 0 -x {3.0 4.0 -1 ------- null}
+ -t 0.2 -s 4 -d 5 -p ping -e 64 -c 0 -i 52 -a 0 -x {4.0 5.0 -1 ------- null}
+ -t 0.2 -s 5 -d 0 -p ping -e 64 -c 0 -i 53 -a 0 -x {5.0 0.0 -1 ------- null}
+ -t 0.2 -s 0 -d 5 -p ping -e 64 -c 0 -i 54 -a 0 -x {0.0 5.0 -1 ------- null}
+ -t 0.2 -s 1 -d 2 -p ping -e 64 -c 0 -i 55 -a 0 -x {1.0 2.0 -1 ------- null}
+ -t 0.2 -s 2 -d 3 -p ping -e 64 -c 0 -i 56 -a 0 -x {2.0 3.0 -1 ------- null}
+ -t 0.2 -s 3 -d 4 -p ping -e 64 -c 0 -i 57 -a 0 -x {3.0 4.0 -1 ------- null}
+ -t 0.2 -s 4 -d 5 -p ping -e 64 -c 0 -i 58 -a 0 -x {4.0 5.0 -1 ------- null}
+ -t 0.2 -s 5 -d 0 -p ping -e 64 -c 0 -i 59 -a 0 -x {5.0 0.0 -1 ------- null}
+ -t 0.2 -s 0 -d 5 -p ping -e 64 -c 0 -i 60 -a 0 -x {0.0 5.0 -1 ------- null}
+ -t 0.2 -s 1 -d 2 -p ping -e 64 -c 0 -i 61 -a 0 -x {1.0 2.0 -1 ------- null}
+ -t 0.2 -s 2 -d 3 -p ping -e 64 -c 0 -i 62 -a 0 -x {2.0 3.0 -1 ------- null}
+ -t 0.2 -s 3 -d 4 -p ping -e 64 -c 0 -i 63 -a 0 -x {3.0 4.0 -1 ------- null}
+ -t 0.2 -s 4 -d 5 -p ping -e 64 -c 0 -i 64 -a 0 -x {4.0 5.0 -1 ------- null}
+ -t 0.2 -s 5 -d 0 -p ping -e 64 -c 0 -i 65 -a 0 -x {5.0 0.0 -1 ------- null}
+ -t 0.2 -s 0 -d 5 -p ping -e 64 -c 0 -i 66 -a 0 -x {0.0 5.0 -1 ------- null}
+ -t 0.2 -s 1 -d 2 -p ping -e 64 -c 0 -i 67 -a 0 -x {1.0 2.0 -1 ------- null}
+ -t 0.2 -s 2 -d 3 -p ping -e 64 -c 0 -i 68 -a 0 -x {2.0 3.0 -1 ------- null}
+ -t 0.2 -s 3 -d 4 -p ping -e 64 -c 0 -i 69 -a 0 -x {3.0 4.0 -1 ------- null}
+ -t 0.2 -s 4 -d 5 -p ping -e 64 -c 0 -i 70 -a 0 -x {4.0 5.0 -1 ------- null}
+ -t 0.2 -s 5 -d 0 -p ping -e 64 -c 0 -i 71 -a 0 -x {5.0 0.0 -1 ------- null}
+ -t 0.2 -s 0 -d 5 -p ping -e 64 -c 0 -i 72 -a 0 -x {0.0 5.0 -1 ------- null}
+ -t 0.2 -s 1 -d 2 -p ping -e 64 -c 0 -i 73 -a 0 -x {1.0 2.0 -1 ------- null}
+ -t 0.2 -s 2 -d 3 -p ping -e 64 -c 0 -i 74 -a 0 -x {2.0 3.0 -1 ------- null}
+ -t 0.2 -s 3 -d 4 -p ping -e 64 -c 0 -i 75 -a 0 -x {3.0 4.0 -1 ------- null}
+ -t 0.2 -s 4 -d 5 -p ping -e 64 -c 0 -i 76 -a 0 -x {4.0 5.0 -1 ------- null}
+ -t 0.2 -s 5 -d 0 -p ping -e 64 -c 0 -i 77 -a 0 -x {5.0 0.0 -1 ------- null}
+ -t 0.2 -s 0 -d 5 -p ping -e 64 -c 0 -i 78 -a 0 -x {0.0 5.0 -1 ------- null}
+ -t 0.2 -s 1 -d 2 -p ping -e 64 -c 0 -i 79 -a 0 -x {1.0 2.0 -1 ------- null}
+ -t 0.2 -s 2 -d 3 -p ping -e 64 -c 0 -i 80 -a 0 -x {2.0 3.0 -1 ------- null}
+ -t 0.2 -s 3 -d 4 -p ping -e 64 -c 0 -i 81 -a 0 -x {3.0 4.0 -1 ------- null}
+ -t 0.2 -s 4 -d 5 -p ping -e 64 -c 0 -i 82 -a 0 -x {4.0 5.0 -1 ------- null}
+ -t 0.2 -s 5 -d 0 -p ping -e 64 -c 0 -i 83 -a 0 -x {5.0 0.0 -1 ------- null}
+ -t 0.2 -s 0 -d 5 -p ping -e 64 -c 0 -i 84 -a 0 -x {0.0 5.0 -1 ------- null}
+ -t 0.2 -s 1 -d 2 -p ping -e 64 -c 0 -i 85 -a 0 -x {1.0 2.0 -1 ------- null}
+ -t 0.2 -s 2 -d 3 -p ping -e 64 -c 0 -i 86 -a 0 -x {2.0 3.0 -1 ------- null}
+ -t 0.2 -s 3 -d 4 -p ping -e 64 -c 0 -i 87 -a 0 -x {3.0 4.0 -1 ------- null}
+ -t 0.2 -s 4 -d 5 -p ping -e 64 -c 0 -i 88 -a 0 -x {4.0 5.0 -1 ------- null}
+ -t 0.2 -s 5 -d 0 -p ping -e 64 -c 0 -i 89 -a 0 -x {5.0 0.0 -1 ------- null}
+ -t 0.2 -s 0 -d 5 -p ping -e 64 -c 0 -i 90 -a 0 -x {0.0 5.0 -1 ------- null}
+ -t 0.2 -s 1 -d 2 -p ping -e 64 -c 0 -i 91 -a 0 -x {1.0 2.0 -1 ------- null}
+ -t 0.2 -s 2 -d 3 -p ping -e 64 -c 0 -i 92 -a 0 -x {2.0 3.0 -1 ------- null}
+ -t 0.2 -s 3 -d 4 -p ping -e 64 -c 0 -i 93 -a 0 -x {3.0 4.0 -1 ------- null}
+ -t 0.2 -s 4 -d 5 -p ping -e 64 -c 0 -i 94 -a 0 -x {4.0 5.0 -1 ------- null}
+ -t 0.2 -s 5 -d 0 -p ping -e 64 -c 0 -i 95 -a 0 -x {5.0 0.0 -1 ------- null}
+ -t 0.2 -s 0 -d 5 -p ping -e 64 -c 0 -i 96 -a 0 -x {0.0 5.0 -1 ------- null}
+ -t 0.2 -s 1 -d 2 -p ping -e 64 -c 0 -i 97 -a 0 -x {1.0 2.0 -1 ------- null}
+ -t 0.2 -s 2 -d 3 -p ping -e 64 -c 0 -i 98 -a 0 -x {2.0 3.0 -1 ------- null}
+ -t 0.2 -s 3 -d 4 -p ping -e 64 -c 0 -i 99 -a 0 -x {3.0 4.0 -1 ------- null}
+ -t 0.2 -s 4 -d 5 -p ping -e 64 -c 0 -i 100 -a 0 -x {4.0 5.0 -1 ------- null}
+ -t 0.2 -s 5 -d 0 -p ping -e 64 -c 0 -i 101 -a 0 -x {5.0 0.0 -1 ------- null}
+ -t 0.2 -s 0 -d 5 -p ping -e 64 -c 0 -i 102 -a 0 -x {0.0 5.0 -1 ------- null}
+ -t 0.2 -s 1 -d 2 -p ping -e 64 -c 0 -i 103 -a 0 -x {1.0 2.0 -1 ------- null}
+ -t 0.2 -s 2 -d 3 -p ping -e 64 -c 0 -i 104 -a 0 -x {2.0 3.0 -1 ------- null}
+ -t 0.2 -s 3 -d 4 -p ping -e 64 -c 0 -i 105 -a 0 -x {3.0 4.0 -1 ------- null}
+ -t 0.2 -s 4 -d 5 -p ping -e 64 -c 0 -i 106 -a 0 -x {4.0 5.0 -1 ------- null}
+ -t 0.2 -s 5 -d 0 -p ping -e 64 -c 0 -i 107 -a 0 -x {5.0 0.0 -1 ------- null}
+ -t 0.2 -s 0 -d 5 -p ping -e 64 -c 0 -i 108 -a 0 -x {0.0 5.0 -1 ------- null}
+ -t 0.2 -s 1 -d 2 -p ping -e 64 -c 0 -i 109 -a 0 -x {1.0 2.0 -1 ------- null}
+ -t 0.2 -s 2 -d 3 -p ping -e 64 -c 0 -i 110 -a 0 -x {2.0 3.0 -1 ------- null}
+ -t 0.2 -s 3 -d 4 -p ping -e 64 -c 0 -i 111 -a 0 -x {3.0 4.0 -1 ------- null}
+ -t 0.2 -s 4 -d 5 -p ping -e 64 -c 0 -i 112 -a 0 -x {4.0 5.0 -1 ------- null}
+ -t 0.2 -s 5 -d 0 -p ping -e 64 -c 0 -i 113 -a 0 -x {5.0 0.0 -1 ------- null}
+ -t 0.2 -s 0 -d 5 -p ping -e 64 -c 0 -i 114 -a 0 -x {0.0 5.0 -1 ------- null}
+ -t 0.2 -s 1 -d 2 -p ping -e 64 -c 0 -i 115 -a 0 -x {1.0 2.0 -1 ------- null}
+ -t 0.2 -s 2 -d 3 -p ping -e 64 -c 0 -i 116 -a 0 -x {2.0 3.0 -1 ------- null}
+ -t 0.2 -s 3 -d 4 -p ping -e 64 -c 0 -i 117 -a 0 -x {3.0 4.0 -1 ------- null}
+ -t 0.2 -s 4 -d 5 -p ping -e 64 -c 0 -i 118 -a 0 -x {4.0 5.0 -1 ------- null}
+ -t 0.2 -s 5 -d 0 -p ping -e 64 -c 0 -i 119 -a 0 -x {5.0 0.0 -1 ------- null}
+ -t 0.2 -s 0 -d 5 -p ping -e 64 -c 0 -i 120 -a 0 -x {0.0 5.0 -1 ------- null}
+ -t 0.2 -s 1 -d 2 -p ping -e 64 -c 0 -i 121 -a 0 -x {1.0 2.0 -1 ------- null}
+ -t 0.2 -s 2 -d 3 -p ping -e 64 -c 0 -i 122 -a 0 -x {2.0 3.0 -1 ------- null}
+ -t 0.2 -s 3 -d 4 -p ping -e 64 -c 0 -i 123 -a 0 -x {3.0 4.0 -1 ------- null}
+ -t 0.2 -s 4 -d 5 -p ping -e 64 -c 0 -i 124 -a 0 -x {4.0 5.0 -1 ------- null}
+ -t 0.2 -s 5 -d 0 -p ping -e 64 -c 0 -i 125 -a 0 -x {5.0 0.0 -1 ------- null}
+ -t 0.2 -s 0 -d 5 -p ping -e 64 -c 0 -i 126 -a 0 -x {0.0 5.0 -1 ------- null}
+ -t 0.2 -s 1 -d 2 -p ping -e 64 -c 0 -i 127 -a 0 -x {1.0 2.0 -1 ------- null}
+ -t 0.2 -s 2 -d 3 -p ping -e 64 -c 0 -i 128 -a 0 -x {2.0 3.0 -1 ------- null}
+ -t 0.2 -s 3 -d 4 -p ping -e 64 -c 0 -i 129 -a 0 -x {3.0 4.0 -1 ------- null}
+ -t 0.2 -s 4 -d 5 -p ping -e 64 -c 0 -i 130 -a 0 -x {4.0 5.0 -1 ------- null}
+ -t 0.2 -s 5 -d 0 -p ping -e 64 -c 0 -i 131 -a 0 -x {5.0 0.0 -1 ------- null}
+ -t 0.2 -s 0 -d 5 -p ping -e 64 -c 0 -i 132 -a 0 -x {0.0 5.0 -1 ------- null}
+ -t 0.2 -s 1 -d 2 -p ping -e 64 -c 0 -i 133 -a 0 -x {1.0 2.0 -1 ------- null}
+ -t 0.2 -s 2 -d 3 -p ping -e 64 -c 0 -i 134 -a 0 -x {2.0 3.0 -1 ------- null}
+ -t 0.2 -s 3 -d 4 -p ping -e 64 -c 0 -i 135 -a 0 -x {3.0 4.0 -1 ------- null}
+ -t 0.2 -s 4 -d 5 -p ping -e 64 -c 0 -i 136 -a 0 -x {4.0 5.0 -1 ------- null}
+ -t 0.2 -s 5 -d 0 -p ping -e 64 -c 0 -i 137 -a 0 -x {5.0 0.0 -1 ------- null}
+ -t 0.2 -s 0 -d 5 -p ping -e 64 -c 0 -i 138 -a 0 -x {0.0 5.0 -1 ------- null}
+ -t 0.2 -s 1 -d 2 -p ping -e 64 -c 0 -i 139 -a 0 -x {1.0 2.0 -1 ------- null}
+ -t 0.2 -s 2 -d 3 -p ping -e 64 -c 0 -i 140 -a 0 -x {2.0 3.0 -1 ------- null}
+ -t 0.2 -s 3 -d 4 -p ping -e 64 -c 0 -i 141 -a 0 -x {3.0 4.0 -1 ------- null}
+ -t 0.2 -s 4 -d 5 -p ping -e 64 -c 0 -i 142 -a 0 -x {4.0 5.0 -1 ------- null}
+ -t 0.2 -s 5 -d 0 -p ping -e 64 -c 0 -i 143 -a 0 -x {5.0 0.0 -1 ------- null}
+ -t 0.2 -s 0 -d 5 -p ping -e 64 -c 0 -i 144 -a 0 -x {0.0 5.0 -1 ------- null}
+ -t 0.2 -s 1 -d 2 -p ping -e 64 -c 0 -i 145 -a 0 -x {1.0 2.0 -1 ------- null}
+ -t 0.2 -s 2 -d 3 -p ping -e 64 -c 0 -i 146 -a 0 -x {2.0 3.0 -1 ------- null}
+ -t 0.2 -s 3 -d 4 -p ping -e 64 -c 0 -i 147 -a 0 -x {3.0 4.0 -1 ------- null}
+ -t 0.2 -s 4 -d 5 -p ping -e 64 -c 0 -i 148 -a 0 -x {4.0 5.0 -1 ------- null}
+ -t 0.2 -s 5 -d 0 -p ping -e 64 -c 0 -i 149 -a 0 -x {5.0 0.0 -1 ------- null}
+ -t 0.2 -s 0 -d 5 -p ping -e 64 -c 0 -i 150 -a 0 -x {0.0 5.0 -1 ------- null}
+ -t 0.2 -s 1 -d 2 -p ping -e 64 -c 0 -i 151 -a 0 -x {1.0 2.0 -1 ------- null}
+ -t 0.2 -s 2 -d 3 -p ping -e 64 -c 0 -i 152 -a 0 -x {2.0 3.0 -1 ------- null}
+ -t 0.2 -s 3 -d 4 -p ping -e 64 -c 0 -i 153 -a 0 -x {3.0 4.0 -1 ------- null}
+ -t 0.2 -s 4 -d 5 -p ping -e 64 -c 0 -i 154 -a 0 -x {4.0 5.0 -1 ------- null}
+ -t 0.2 -s 5 -d 0 -p ping -e 64 -c 0 -i 155 -a 0 -x {5.0 0.0 -1 ------- null}
+ -t 0.2 -s 0 -d 5 -p ping -e 64 -c 0 -i 156 -a 0 -x {0.0 5.0 -1 ------- null}
+ -t 0.2 -s 1 -d 2 -p ping -e 64 -c 0 -i 157 -a 0 -x {1.0 2.0 -1 ------- null}
+ -t 0.2 -s 2 -d 3 -p ping -e 64 -c 0 -i 158 -a 0 -x {2.0 3.0 -1 ------- null}
+ -t 0.2 -s 3 -d 4 -p ping -e 64 -c 0 -i 159 -a 0 -x {3.0 4.0 -1 ------- null}
+ -t 0.2 -s 4 -d 5 -p ping -e 64 -c 0 -i 160 -a 0 -x {4.0 5.0 -1 ------- null}
+ -t 0.2 -s 5 -d 0 -p ping -e 64 -c 0 -i 161 -a 0 -x {5.0 0.0 -1 ------- null}
+ -t 0.2 -s 0 -d 5 -p ping -e 64 -c 0 -i 162 -a 0 -x {0.0 5.0 -1 ------- null}
+ -t 0.2 -s 1 -d 2 -p ping -e 64 -c 0 -i 163 -a 0 -x {1.0 2.0 -1 ------- null}
+ -t 0.2 -s 2 -d 3 -p ping -e 64 -c 0 -i 164 -a 0 -x {2.0 3.0 -1 ------- null}
+ -t 0.2 -s 3 -d 4 -p ping -e 64 -c 0 -i 165 -a 0 -x {3.0 4.0 -1 ------- null}
+ -t 0.2 -s 4 -d 5 -p ping -e 64 -c 0 -i 166 -a 0 -x {4.0 5.0 -1 ------- null}
+ -t 0.2 -s 5 -d 0 -p ping -e 64 -c 0 -i 167 -a 0 -x {5.0 0.0 -1 ------- null}
+ -t 0.2 -s 0 -d 5 -p ping -e 64 -c 0 -i 168 -a 0 -x {0.0 5.0 -1 ------- null}
+ -t 0.2 -s 1 -d 2 -p ping -e 64 -c 0 -i 169 -a 0 -x {1.0 2.0 -1 ------- null}
+ -t 0.2 -s 2 -d 3 -p ping -e 64 -c 0 -i 170 -a 0 -x {2.0 3.0 -1 ------- null}
+ -t 0.2 -s 3 -d 4 -p ping -e 64 -c 0 -i 171 -a 0 -x {3.0 4.0 -1 ------- null}
+ -t 0.2 -s 4 -d 5 -p ping -e 64 -c 0 -i 172 -a 0 -x {4.0 5.0 -1 ------- null}
+ -t 0.2 -s 5 -d 0 -p ping -e 64 -c 0 -i 173 -a 0 -x {5.0 0.0 -1 ------- null}
+ -t 0.2 -s 0 -d 5 -p ping -e 64 -c 0 -i 174 -a 0 -x {0.0 5.0 -1 ------- null}
+ -t 0.2 -s 1 -d 2 -p ping -e 64 -c 0 -i 175 -a 0 -x {1.0 2.0 -1 ------- null}
+ -t 0.2 -s 2 -d 3 -p ping -e 64 -c 0 -i 176 -a 0 -x {2.0 3.0 -1 ------- null}
+ -t 0.2 -s 3 -d 4 -p ping -e 64 -c 0 -i 177 -a 0 -x {3.0 4.0 -1 ------- null}
+ -t 0.2 -s 4 -d 5 -p ping -e 64 -c 0 -i 178 -a 0 -x {4.0 5.0 -1 ------- null}
+ -t 0.2 -s 5 -d 0 -p ping -e 64 -c 0 -i 179 -a 0 -x {5.0 0.0 -1 ------- null}
+ -t 0.2 -s 0 -d 5 -p ping -e 64 -c 0 -i 180 -a 0 -x {0.0 5.0 -1 ------- null}
+ -t 0.2 -s 1 -d 2 -p ping -e 64 -c 0 -i 181 -a 0 -x {1.0 2.0 -1 ------- null}
+ -t 0.2 -s 2 -d 3 -p ping -e 64 -c 0 -i 182 -a 0 -x {2.0 3.0 -1 ------- null}
+ -t 0.2 -s 3 -d 4 -p ping -e 64 -c 0 -i 183 -a 0 -x {3.0 4.0 -1 ------- null}
+ -t 0.2 -s 4 -d 5 -p ping -e 64 -c 0 -i 184 -a 0 -x {4.0 5.0 -1 ------- null}
+ -t 0.2 -s 5 -d 0 -p ping -e 64 -c 0 -i 185 -a 0 -x {5.0 0.0 -1 ------- null}
+ -t 0.2 -s 0 -d 5 -p ping -e 64 -c 0 -i 186 -a 0 -x {0.0 5.0 -1 ------- null}
+ -t 0.2 -s 1 -d 2 -p ping -e 64 -c 0 -i 187 -a 0 -x {1.0 2.0 -1 ------- null}
+ -t 0.2 -s 2 -d 3 -p ping -e 64 -c 0 -i 188 -a 0 -x {2.0 3.0 -1 ------- null}
+ -t 0.2 -s 3 -d 4 -p ping -e 64 -c 0 -i 189 -a 0 -x {3.0 4.0 -1 ------- null}
+ -t 0.2 -s 4 -d 5 -p ping -e 64 -c 0 -i 190 -a 0 -x {4.0 5.0 -1 ------- null}
+ -t 0.2 -s 5 -d 0 -p ping -e 64 -c 0 -i 191 -a 0 -x {5.0 0.0 -1 ------- null}
+ -t 0.2 -s 0 -d 5 -p ping -e 64 -c 0 -i 192 -a 0 -x {0.0 5.0 -1 ------- null}
+ -t 0.2 -s 1 -d 2 -p ping -e 64 -c 0 -i 193 -a 0 -x {1.0 2.0 -1 ------- null}
+ -t 0.2 -s 2 -d 3 -p ping -e 64 -c 0 -i 194 -a 0 -x {2.0 3.0 -1 ------- null}
+ -t 0.2 -s 3 -d 4 -p ping -e 64 -c 0 -i 195 -a 0 -x {3.0 4.0 -1 ------- null}
+ -t 0.2 -s 4 -d 5 -p ping -e 64 -c 0 -i 196 -a 0 -x {4.0 5.0 -1 ------- null}
+ -t 0.2 -s 5 -d 0 -p ping -e 64 -c 0 -i 197 -a 0 -x {5.0 0.0 -1 ------- null}
+ -t 0.2 -s 0 -d 5 -p ping -e 64 -c 0 -i 198 -a 0 -x {0.0 5.0 -1 ------- null}
+ -t 0.2 -s 1 -d 2 -p ping -e 64 -c 0 -i 199 -a 0 -x {1.0 2.0 -1 ------- null}
+ -t 0.2 -s 2 -d 3 -p ping -e 64 -c 0 -i 200 -a 0 -x {2.0 3.0 -1 ------- null}
+ -t 0.2 -s 3 -d 4 -p ping -e 64 -c 0 -i 201 -a 0 -x {3.0 4.0 -1 ------- null}
+ -t 0.2 -s 4 -d 5 -p ping -e 64 -c 0 -i 202 -a 0 -x {4.0 5.0 -1 ------- null}
+ -t 0.2 -s 5 -d 0 -p ping -e 64 -c 0 -i 203 -a 0 -x {5.0 0.0 -1 ------- null}
+ -t 0.2 -s 0 -d 5 -p ping -e 64 -c 0 -i 204 -a 0 -x {0.0 5.0 -1 ------- null}
+ -t 0.2 -s 1 -d 2 -p ping -e 64 -c 0 -i 205 -a 0 -x {1.0 2.0 -1 ------- null}
+ -t 0.2 -s 2 -d 3 -p ping -e 64 -c 0 -i 206 -a 0 -x {2.0 3.0 -1 ------- null}
+ -t 0.2 -s 3 -d 4 -p ping -e 64 -c 0 -i 207 -a 0 -x {3.0 4.0 -1 ------- null}
+ -t 0.2 -s 4 -d 5 -p ping -e 64 -c 0 -i 208 -a 0 -x {4.0 5.0 -1 ------- null}
+ -t 0.2 -s 5 -d 0 -p ping -e 64 -c 0 -i 209 -a 0 -x {5.0 0.0 -1 ------- null}
+ -t 0.2 -s 0 -d 5 -p ping -e 64 -c 0 -i 210 -a 0 -x {0.0 5.0 -1 ------- null}
+ -t 0.2 -s 1 -d 2 -p ping -e 64 -c 0 -i 211 -a 0 -x {1.0 2.0 -1 ------- null}
+ -t 0.2 -s 2 -d 3 -p ping -e 64 -c 0 -i 212 -a 0 -x {2.0 3.0 -1 ------- null}
+ -t 0.2 -s 3 -d 4 -p ping -e 64 -c 0 -i 213 -a 0 -x {3.0 4.0 -1 ------- null}
+ -t 0.2 -s 4 -d 5 -p ping -e 64 -c 0 -i 214 -a 0 -x {4.0 5.0 -1 ------- null}
+ -t 0.2 -s 5 -d 0 -p ping -e 64 -c 0 -i 215 -a 0 -x {5.0 0.0 -1 ------- null}
+ -t 0.2 -s 0 -d 5 -p ping -e 64 -c 0 -i 216 -a 0 -x {0.0 5.0 -1 ------- null}
+ -t 0.2 -s 1 -d 2 -p ping -e 64 -c 0 -i 217 -a 0 -x {1.0 2.0 -1 ------- null}
+ -t 0.2 -s 2 -d 3 -p ping -e 64 -c 0 -i 218 -a 0 -x {2.0 3.0 -1 ------- null}
+ -t 0.2 -s 3 -d 4 -p ping -e 64 -c 0 -i 219 -a 0 -x {3.0 4.0 -1 ------- null}
+ -t 0.2 -s 4 -d 5 -p ping -e 64 -c 0 -i 220 -a 0 -x {4.0 5.0 -1 ------- null}
+ -t 0.2 -s 5 -d 0 -p ping -e 64 -c 0 -i 221 -a 0 -x {5.0 0.0 -1 ------- null}
+ -t 0.2 -s 0 -d 5 -p ping -e 64 -c 0 -i 222 -a 0 -x {0.0 5.0 -1 ------- null}
+ -t 0.2 -s 1 -d 2 -p ping -e 64 -c 0 -i 223 -a 0 -x {1.0 2.0 -1 ------- null}
+ -t 0.2 -s 2 -d 3 -p ping -e 64 -c 0 -i 224 -a 0 -x {2.0 3.0 -1 ------- null}
+ -t 0.2 -s 3 -d 4 -p ping -e 64 -c 0 -i 225 -a 0 -x {3.0 4.0 -1 ------- null}
+ -t 0.2 -s 4 -d 5 -p ping -e 64 -c 0 -i 226 -a 0 -x {4.0 5.0 -1 ------- null}
+ -t 0.2 -s 5 -d 0 -p ping -e 64 -c 0 -i 227 -a 0 -x {5.0 0.0 -1 ------- null}
+ -t 0.2 -s 0 -d 5 -p ping -e 64 -c 0 -i 228 -a 0 -x {0.0 5.0 -1 ------- null}
+ -t 0.2 -s 1 -d 2 -p ping -e 64 -c 0 -i 229 -a 0 -x {1.0 2.0 -1 ------- null}
+ -t 0.2 -s 2 -d 3 -p ping -e 64 -c 0 -i 230 -a 0 -x {2.0 3.0 -1 ------- null}
+ -t 0.2 -s 3 -d 4 -p ping -e 64 -c 0 -i 231 -a 0 -x {3.0 4.0 -1 ------- null}
+ -t 0.2 -s 4 -d 5 -p ping -e 64 -c 0 -i 232 -a 0 -x {4.0 5.0 -1 ------- null}
+ -t 0.2 -s 5 -d 0 -p ping -e 64 -c 0 -i 233 -a 0 -x {5.0 0.0 -1 ------- null}
+ -t 0.2 -s 0 -d 5 -p ping -e 64 -c 0 -i 234 -a 0 -x {0.0 5.0 -1 ------- null}
+ -t 0.2 -s 1 -d 2 -p ping -e 64 -c 0 -i 235 -a 0 -x {1.0 2.0 -1 ------- null}
+ -t 0.2 -s 2 -d 3 -p ping -e 64 -c 0 -i 236 -a 0 -x {2.0 3.0 -1 ------- null}
+ -t 0.2 -s 3 -d 4 -p ping -e 64 -c 0 -i 237 -a 0 -x {3.0 4.0 -1 ------- null}
+ -t 0.2 -s 4 -d 5 -p ping -e 64 -c 0 -i 238 -a 0 -x {4.0 5.0 -1 ------- null}
+ -t 0.2 -s 5 -d 0 -p ping -e 64 -c 0 -i 239 -a 0 -x {5.0 0.0 -1 ------- null}
+ -t 0.2 -s 0 -d 5 -p ping -e 64 -c 0 -i 240 -a 0 -x {0.0 5.0 -1 ------- null}
+ -t 0.2 -s 1 -d 2 -p ping -e 64 -c 0 -i 241 -a 0 -x {1.0 2.0 -1 ------- null}
+ -t 0.2 -s 2 -d 3 -p ping -e 64 -c 0 -i 242 -a 0 -x {2.0 3.0 -1 ------- null}
+ -t 0.2 -s 3 -d 4 -p ping -e 64 -c 0 -i 243 -a 0 -x {3.0 4.0 -1 ------- null}
+ -t 0.2 -s 4 -d 5 -p ping -e 64 -c 0 -i 244 -a 0 -x {4.0 5.0 -1 ------- null}
+ -t 0.2 -s 5 -d 0 -p ping -e 64 -c 0 -i 245 -a 0 -x {5.0 0.0 -1 ------- null}
+ -t 0.2 -s 0 -d 5 -p ping -e 64 -c 0 -i 246 -a 0 -x {0.0 5.0 -1 ------- null}
+ -t 0.2 -s 1 -d 2 -p ping -e 64 -c 0 -i 247 -a 0 -x {1.0 2.0 -1 ------- null}
+ -t 0.2 -s 2 -d 3 -p ping -e 64 -c 0 -i 248 -a 0 -x {2.0 3.0 -1 ------- null}
+ -t 0.2 -s 3 -d 4 -p ping -e 64 -c 0 -i 249 -a 0 -x {3.0 4.0 -1 ------- null}
+ -t 0.2 -s 4 -d 5 -p ping -e 64 -c 0 -i 250 -a 0 -x {4.0 5.0 -1 ------- null}
+ -t 0.2 -s 5 -d 0 -p ping -e 64 -c 0 -i 251 -a 0 -x {5.0 0.0 -1 ------- null}
+ -t 0.2 -s 0 -d 5 -p ping -e 64 -c 0 -i 252 -a 0 -x {0.0 5.0 -1 ------- null}
+ -t 0.2 -s 1 -d 2 -p ping -e 64 -c 0 -i 253 -a 0 -x {1.0 2.0 -1 ------- null}
+ -t 0.2 -s 2 -d 3 -p ping -e 64 -c 0 -i 254 -a 0 -x {2.0 3.0 -1 ------- null}
+ -t 0.2 -s 3 -d 4 -p ping -e 64 -c 0 -i 255 -a 0 -x {3.0 4.0 -1 ------- null}
+ -t 0.2 -s 4 -d 5 -p ping -e 64 -c 0 -i 256 -a 0 -x {4.0 5.0 -1 ------- null}
+ -t 0.2 -s 5 -d 0 -p ping -e 64 -c 0 -i 257 -a 0 -x {5.0 0.0 -1 ------- null}
+ -t 0.2 -s 0 -d 5 -p ping -e 64 -c 0 -i 258 -a 0 -x {0.0 5.0 -1 ------- null}
+ -t 0.2 -s 1 -d 2 -p ping -e 64 -c 0 -i 259 -a 0 -x {1.0 2.0 -1 ------- null}
+ -t 0.2 -s 2 -d 3 -p ping -e 64 -c 0 -i 260 -a 0 -x {2.0 3.0 -1 ------- null}
+ -t 0.2 -s 3 -d 4 -p ping -e 64 -c 0 -i 261 -a 0 -x {3.0 4.0 -1 ------- null}
+ -t 0.2 -s 4 -d 5 -p ping -e 64 -c 0 -i 262 -a 0 -x {4.0 5.0 -1 ------- null}
+ -t 0.2 -s 5 -d 0 -p ping -e 64 -c 0 -i 263 -a 0 -x {5.0 0.0 -1 ------- null}
+ -t 0.2 -s 0 -d 5 -p ping -e 64 -c 0 -i 264 -a 0 -x {0.0 5.0 -1 ------- null}
+ -t 0.2 -s 1 -d 2 -p ping -e 64 -c 0 -i 265 -a 0 -x {1.0 2.0 -1 ------- null}
+ -t 0.2 -s 2 -d 3 -p ping -e 64 -c 0 -i 266 -a 0 -x {2.0 3.0 -1 ------- null}
+ -t 0.2 -s 3 -d 4 -p ping -e 64 -c 0 -i 267 -a 0 -x {3.0 4.0 -1 ------- null}
+ -t 0.2 -s 4 -d 5 -p ping -e 64 -c 0 -i 268 -a 0 -x {4.0 5.0 -1 ------- null}
+ -t 0.2 -s 5 -d 0 -p ping -e 64 -c 0 -i 269 -a 0 -x {5.0 0.0 -1 ------- null}
+ -t 0.2 -s 0 -d 5 -p ping -e 64 -c 0 -i 270 -a 0 -x {0.0 5.0 -1 ------- null}
+ -t 0.2 -s 1 -d 2 -p ping -e 64 -c 0 -i 271 -a 0 -x {1.0 2.0 -1 ------- null}
+ -t 0.2 -s 2 -d 3 -p ping -e 64 -c 0 -i 272 -a 0 -x {2.0 3.0 -1 ------- null}
+ -t 0.2 -s 3 -d 4 -p ping -e 64 -c 0 -i 273 -a 0 -x {3.0 4.0 -1 ------- null}
+ -t 0.2 -s 4 -d 5 -p ping -e 64 -c 0 -i 274 -a 0 -x {4.0 5.0 -1 ------- null}
+ -t 0.2 -s 5 -d 0 -p ping -e 64 -c 0 -i 275 -a 0 -x {5.0 0.0 -1 ------- null}
+ -t 0.2 -s 0 -d 5 -p ping -e 64 -c 0 -i 276 -a 0 -x {0.0 5.0 -1 ------- null}
+ -t 0.2 -s 1 -d 2 -p ping -e 64 -c 0 -i 277 -a 0 -x {1.0 2.0 -1 ------- null}
+ -t 0.2 -s 2 -d 3 -p ping -e 64 -c 0 -i 278 -a 0 -x {2.0 3.0 -1 ------- null}
+ -t 0.2 -s 3 -d 4 -p ping -e 64 -c 0 -i 279 -a 0 -x {3.0 4.0 -1 ------- null}
+ -t 0.2 -s 4 -d 5 -p ping -e 64 -c 0 -i 280 -a 0 -x {4.0 5.0 -1 ------- null}
+ -t 0.2 -s 5 -d 0 -p ping -e 64 -c 0 -i 281 -a 0 -x {5.0 0.0 -1 ------- null}
+ -t 0.2 -s 0 -d 5 -p ping -e 64 -c 0 -i 282 -a 0 -x {0.0 5.0 -1 ------- null}
+ -t 0.2 -s 1 -d 2 -p ping -e 64 -c 0 -i 283 -a 0 -x {1.0 2.0 -1 ------- null}
+ -t 0.2 -s 2 -d 3 -p ping -e 64 -c 0 -i 284 -a 0 -x {2.0 3.0 -1 ------- null}
+ -t 0.2 -s 3 -d 4 -p ping -e 64 -c 0 -i 285 -a 0 -x {3.0 4.0 -1 ------- null}
+ -t 0.2 -s 4 -d 5 -p ping -e 64 -c 0 -i 286 -a 0 -x {4.0 5.0 -1 ------- null}
+ -t 0.2 -s 5 -d 0 -p ping -e 64 -c 0 -i 287 -a 0 -x {5.0 0.0 -1 ------- null}
+ -t 0.2 -s 0 -d 5 -p ping -e 64 -c 0 -i 288 -a 0 -x {0.0 5.0 -1 ------- null}
+ -t 0.2 -s 1 -d 2 -p ping -e 64 -c 0 -i 289 -a 0 -x {1.0 2.0 -1 ------- null}
+ -t 0.2 -s 2 -d 3 -p ping -e 64 -c 0 -i 290 -a 0 -x {2.0 3.0 -1 ------- null}
+ -t 0.2 -s 3 -d 4 -p ping -e 64 -c 0 -i 291 -a 0 -x {3.0 4.0 -1 ------- null}
+ -t 0.2 -s 4 -d 5 -p ping -e 64 -c 0 -i 292 -a 0 -x {4.0 5.0 -1 ------- null}
+ -t 0.2 -s 5 -d 0 -p ping -e 64 -c 0 -i 293 -a 0 -x {5.0 0.0 -1 ------- null}
+ -t 0.2 -s 0 -d 5 -p ping -e 64 -c 0 -i 294 -a 0 -x {0.0 5.0 -1 ------- null}
+ -t 0.2 -s 1 -d 2 -p ping -e 64 -c 0 -i 295 -a 0 -x {1.0 2.0 -1 ------- null}
+ -t 0.2 -s 2 -d 3 -p ping -e 64 -c 0 -i 296 -a 0 -x {2.0 3.0 -1 ------- null}
+ -t 0.2 -s 3 -d 4 -p ping -e 64 -c 0 -i 297 -a 0 -x {3.0 4.0 -1 ------- null}
+ -t 0.2 -s 4 -d 5 -p ping -e 64 -c 0 -i 298 -a 0 -x {4.0 5.0 -1 ------- null}
+ -t 0.2 -s 5 -d 0 -p ping -e 64 -c 0 -i 299 -a 0 -x {5.0 0.0 -1 ------- null}
- -t 0.2512 -s 0 -d 5 -p ping -e 64 -c 0 -i 6 -a 0 -x {0.0 5.0 -1 ------- null}
h -t 0.2512 -s 0 -d 5 -p ping -e 64 -c 0 -i 6 -a 0 -x {0.0 5.0 -1 ------- null}
- -t 0.2512 -s 1 -d 2 -p ping -e 64 -c 0 -i 7 -a 0 -x {1.0 2.0 -1 ------- null}
h -t 0.2512 -s 1 -d 2 -p ping -e 64 -c 0 -i 7 -a 0 -x {1.0 2.0 -1 ------- null}
- -t 0.2512 -s 2 -d 3 -p ping -e 64 -c 0 -i 8 -a 0 -x {2.0 3.0 -1 ------- null}
h -t 0.2512 -s 2 -d 3 -p ping -e 64 -c 0 -i 8 -a 0 -x {2.0 3.0 -1 ------- null}
- -t 0.2512 -s 3 -d 4 -p ping -e 64 -c 0 -i 9 -a 0 -x {3.0 4.0 -1 ------- null}
h -t 0.2512 -s 3 -d 4 -p ping -e 64 -c 0 -i 9 -a 0 -x {3.0 4.0 -1 ------- null}
- -t 0.2512 -s 4 -d 5 -p ping -e 64 -c 0 -i 10 -a 0 -x {4.0 5.0 -1 ------- null}
h -t 0.2512 -s 4 -d 5 -p ping -e 64 -c 0 -i 10 -a 0 -x {4.0 5.0 -1 ------- null}
- -t 0.2512 -s 5 -d 0 -p ping -e 64 -c 0 -i 11 -a 0 -x {5.0 0.0 -1 ------- null}
h -t 0.2512 -s 5 -d 0 -p ping -e 64 -c 0 -i 11 -a 0 -x {5.0 0.0 -1 ------- null}
r -t 0.2612 -s 0 -d 5 -p ping -e 64 -c 0 -i 0 -a 0 -x {0.0 5.0 -1 ------- null}
+ -t 0.2612 -s 5 -d 0 -p ping -e 64 -c 0 -i 300 -a 0 -x {5.0 0.0 -1 ------- null}
r -t 0.2612 -s 1 -d 2 -p ping -e 64 -c 0 -i 1 -a 0 -x {1.0 2.0 -1 ------- null}
+ -t 0.2612 -s 2 -d 3 -p ping -e 64 -c 0 -i 301 -a 0 -x {2.0 3.0 -1 ------- null}
r -t 0.2612 -s 2 -d 3 -p ping -e 64 -c 0 -i 2 -a 0 -x {2.0 3.0 -1 ------- null}
+ -t 0.2612 -s 3 -d 4 -p ping -e 64 -c 0 -i 302 -a 0 -x {3.0 4.0 -1 ------- null}
r -t 0.2612 -s 3 -d 4 -p ping -e 64 -c 0 -i 3 -a 0 -x {3.0 4.0 -1 ------- null}
+ -t 0.2612 -s 4 -d 5 -p ping -e 64 -c 0 -i 303 -a 0 -x {4.0 5.0 -1 ------- null}
r -t 0.2612 -s 4 -d 5 -p ping -e 64 -c 0 -i 4 -a 0 -x {4.0 5.0 -1 ------- null}
+ -t 0.2612 -s 5 -d 0 -p ping -e 64 -c 0 -i 304 -a 0 -x {5.0 0.0 -1 ------- null}
d -t 0.2612 -s 5 -d 0 -p ping -e 64 -c 0 -i 304 -a 0 -x {5.0 0.0 -1 ------- null}
r -t 0.2612 -s 5 -d 0 -p ping -e 64 -c 0 -i 5 -a 0 -x {5.0 0.0 -1 ------- null}
+ -t 0.2612 -s 0 -d 5 -p ping -e 64 -c 0 -i 305 -a 0 -x {0.0 5.0 -1 ------- null}
- -t 0.3024 -s 0 -d 5 -p ping -e 64 -c 0 -i 12 -a 0 -x {0.0 5.0 -1 ------- null}
h -t 0.3024 -s 0 -d 5 -p ping -e 64 -c 0 -i 12 -a 0 -x {0.0 5.0 -1 ------- null}
- -t 0.3024 -s 1 -d 2 -p ping -e 64 -c 0 -i 13 -a 0 -x {1.0 2.0 -1 ------- null}
h -t 0.3024 -s 1 -d 2 -p ping -e 64 -c 0 -i 13 -a 0 -x {1.0 2.0 -1 ------- null}
- -t 0.3024 -s 2 -d 3 -p ping -e 64 -c 0 -i 14 -a 0 -x {2.0 3.0 -1 ------- null}
h -t 0.3024 -s 2 -d 3 -p ping -e 64 -c 0 -i 14 -a 0 -x {2.0 3.0 -1 ------- null}
- -t 0.3024 -s 3 -d 4 -p ping -e 64 -c 0 -i 15 -a 0 -x {3.0 4.0 -1 ------- null}
h -t 0.3024 -s 3 -d 4 -p ping -e 64 -c 0 -i 15 -a 0 -x {3.0 4.0 -1 ------- null}
- -t 0.3024 -s 4 -d 5 -p ping -e 64 -c 0 -i 16 -a 0 -x {4.0 5.0 -1 ------- null}
h -t 0.3024 -s 4 -d 5 -p ping -e 64 -c 0 -i 16 -a 0 -x {4.0 5.0 -1 ------- null}
- -t 0.3024 -s 5 -d 0 -p ping -e 64 -c 0 -i 17 -a 0 -x {5.0 0.0 -1 ------- null}
h -t 0.3024 -s 5 -d 0 -p ping -e 64 -c 0 -i 17 -a 0 -x {5.0 0.0 -1 ------- null}
r -t 0.3124 -s 0 -d 5 -p ping -e 64 -c 0 -i 6 -a 0 -x {0.0 5.0 -1 ------- null}
+ -t 0.3124 -s 5 -d 0 -p ping -e 64 -c 0 -i 306 -a 0 -x {5.0 0.0 -1 ------- null}
r -t 0.3124 -s 1 -d 2 -p ping -e 64 -c 0 -i 7 -a 0 -x {1.0 2.0 -1 ------- null}
+ -t 0.3124 -s 2 -d 3 -p ping -e 64 -c 0 -i 307 -a 0 -x {2.0 3.0 -1 ------- null}
r -t 0.3124 -s 2 -d 3 -p ping -e 64 -c 0 -i 8 -a 0 -x {2.0 3.0 -1 ------- null}
+ -t 0.3124 -s 3 -d 4 -p ping -e 64 -c 0 -i 308 -a 0 -x {3.0 4.0 -1 ------- null}
r -t 0.3124 -s 3 -d 4 -p ping -e 64 -c 0 -i 9 -a 0 -x {3.0 4.0 -1 ------- null}
+ -t 0.3124 -s 4 -d 5 -p ping -e 64 -c 0 -i 309 -a 0 -x {4.0 5.0 -1 ------- null}
r -t 0.3124 -s 4 -d 5 -p ping -e 64 -c 0 -i 10 -a 0 -x {4.0 5.0 -1 ------- null}
+ -t 0.3124 -s 5 -d 0 -p ping -e 64 -c 0 -i 310 -a 0 -x {5.0 0.0 -1 ------- null}
d -t 0.3124 -s 5 -d 0 -p ping -e 64 -c 0 -i 310 -a 0 -x {5.0 0.0 -1 ------- null}
r -t 0.3124 -s 5 -d 0 -p ping -e 64 -c 0 -i 11 -a 0 -x {5.0 0.0 -1 ------- null}
+ -t 0.3124 -s 0 -d 5 -p ping -e 64 -c 0 -i 311 -a 0 -x {0.0 5.0 -1 ------- null}
- -t 0.3536 -s 0 -d 5 -p ping -e 64 -c 0 -i 18 -a 0 -x {0.0 5.0 -1 ------- null}
h -t 0.3536 -s 0 -d 5 -p ping -e 64 -c 0 -i 18 -a 0 -x {0.0 5.0 -1 ------- null}
- -t 0.3536 -s 1 -d 2 -p ping -e 64 -c 0 -i 19 -a 0 -x {1.0 2.0 -1 ------- null}
h -t 0.3536 -s 1 -d 2 -p ping -e 64 -c 0 -i 19 -a 0 -x {1.0 2.0 -1 ------- null}
- -t 0.3536 -s 2 -d 3 -p ping -e 64 -c 0 -i 20 -a 0 -x {2.0 3.0 -1 ------- null}
h -t 0.3536 -s 2 -d 3 -p ping -e 64 -c 0 -i 20 -a 0 -x {2.0 3.0 -1 ------- null}
- -t 0.3536 -s 3 -d 4 -p ping -e 64 -c 0 -i 21 -a 0 -x {3.0 4.0 -1 ------- null}
h -t 0.3536 -s 3 -d 4 -p ping -e 64 -c 0 -i 21 -a 0 -x {3.0 4.0 -1 ------- null}
- -t 0.3536 -s 4 -d 5 -p ping -e 64 -c 0 -i 22 -a 0 -x {4.0 5.0 -1 ------- null}