+ 0.2 0 5 ping 64 ------- 0 0.0 5.0 -1 0
- 0.2 0 5 ping 64 ------- 0 0.0 5.0 -1 0
+ 0.2 1 2 ping 64 ------- 0 1.0 2.0 -1 1
- 0.2 1 2 ping 64 ------- 0 1.0 2.0 -1 1
+ 0.2 2 3 ping 64 ------- 0 2.0 3.0 -1 2
- 0.2 2 3 ping 64 ------- 0 2.0 3.0 -1 2
+ 0.2 3 4 ping 64 ------- 0 3.0 4.0 -1 3
- 0.2 3 4 ping 64 ------- 0 3.0 4.0 -1 3
+ 0.2 4 5 ping 64 ------- 0 4.0 5.0 -1 4
- 0.2 4 5 ping 64 ------- 0 4.0 5.0 -1 4
+ 0.2 5 0 ping 64 ------- 0 5.0 0.0 -1 5
- 0.2 5 0 ping 64 ------- 0 5.0 0.0 -1 5
+ 0.2 0 5 ping 64 ------- 0 0.0 5.0 -1 6
+ 0.2 1 2 ping 64 ------- 0 1.0 2.0 -1 7
+ 0.2 2 3 ping 64 ------- 0 2.0 3.0 -1 8
+ 0.2 3 4 ping 64 ------- 0 3.0 4.0 -1 9
+ 0.2 4 5 ping 64 ------- 0 4.0 5.0 -1 10
+ 0.2 5 0 ping 64 ------- 0 5.0 0.0 -1 11
+ 0.2 0 5 ping 64 ------- 0 0.0 5.0 -1 12
+ 0.2 1 2 ping 64 ------- 0 1.0 2.0 -1 13
+ 0.2 2 3 ping 64 ------- 0 2.0 3.0 -1 14
+ 0.2 3 4 ping 64 ------- 0 3.0 4.0 -1 15
+ 0.2 4 5 ping 64 ------- 0 4.0 5.0 -1 16
+ 0.2 5 0 ping 64 ------- 0 5.0 0.0 -1 17
+ 0.2 0 5 ping 64 ------- 0 0.0 5.0 -1 18
+ 0.2 1 2 ping 64 ------- 0 1.0 2.0 -1 19
+ 0.2 2 3 ping 64 ------- 0 2.0 3.0 -1 20
+ 0.2 3 4 ping 64 ------- 0 3.0 4.0 -1 21
+ 0.2 4 5 ping 64 ------- 0 4.0 5.0 -1 22
+ 0.2 5 0 ping 64 ------- 0 5.0 0.0 -1 23
+ 0.2 0 5 ping 64 ------- 0 0.0 5.0 -1 24
+ 0.2 1 2 ping 64 ------- 0 1.0 2.0 -1 25
+ 0.2 2 3 ping 64 ------- 0 2.0 3.0 -1 26
+ 0.2 3 4 ping 64 ------- 0 3.0 4.0 -1 27
+ 0.2 4 5 ping 64 ------- 0 4.0 5.0 -1 28
+ 0.2 5 0 ping 64 ------- 0 5.0 0.0 -1 29
+ 0.2 0 5 ping 64 ------- 0 0.0 5.0 -1 30
+ 0.2 1 2 ping 64 ------- 0 1.0 2.0 -1 31
+ 0.2 2 3 ping 64 ------- 0 2.0 3.0 -1 32
+ 0.2 3 4 ping 64 ------- 0 3.0 4.0 -1 33
+ 0.2 4 5 ping 64 ------- 0 4.0 5.0 -1 34
+ 0.2 5 0 ping 64 ------- 0 5.0 0.0 -1 35
+ 0.2 0 5 ping 64 ------- 0 0.0 5.0 -1 36
+ 0.2 1 2 ping 64 ------- 0 1.0 2.0 -1 37
+ 0.2 2 3 ping 64 ------- 0 2.0 3.0 -1 38
+ 0.2 3 4 ping 64 ------- 0 3.0 4.0 -1 39
+ 0.2 4 5 ping 64 ------- 0 4.0 5.0 -1 40
+ 0.2 5 0 ping 64 ------- 0 5.0 0.0 -1 41
+ 0.2 0 5 ping 64 ------- 0 0.0 5.0 -1 42
+ 0.2 1 2 ping 64 ------- 0 1.0 2.0 -1 43
+ 0.2 2 3 ping 64 ------- 0 2.0 3.0 -1 44
+ 0.2 3 4 ping 64 ------- 0 3.0 4.0 -1 45
+ 0.2 4 5 ping 64 ------- 0 4.0 5.0 -1 46
+ 0.2 5 0 ping 64 ------- 0 5.0 0.0 -1 47
+ 0.2 0 5 ping 64 ------- 0 0.0 5.0 -1 48
+ 0.2 1 2 ping 64 ------- 0 1.0 2.0 -1 49
+ 0.2 2 3 ping 64 ------- 0 2.0 3.0 -1 50
+ 0.2 3 4 ping 64 ------- 0 3.0 4.0 -1 51
+ 0.2 4 5 ping 64 ------- 0 4.0 5.0 -1 52
+ 0.2 5 0 ping 64 ------- 0 5.0 0.0 -1 53
+ 0.2 0 5 ping 64 ------- 0 0.0 5.0 -1 54
+ 0.2 1 2 ping 64 ------- 0 1.0 2.0 -1 55
+ 0.2 2 3 ping 64 ------- 0 2.0 3.0 -1 56
+ 0.2 3 4 ping 64 ------- 0 3.0 4.0 -1 57
+ 0.2 4 5 ping 64 ------- 0 4.0 5.0 -1 58
+ 0.2 5 0 ping 64 ------- 0 5.0 0.0 -1 59
+ 0.2 0 5 ping 64 ------- 0 0.0 5.0 -1 60
+ 0.2 1 2 ping 64 ------- 0 1.0 2.0 -1 61
+ 0.2 2 3 ping 64 ------- 0 2.0 3.0 -1 62
+ 0.2 3 4 ping 64 ------- 0 3.0 4.0 -1 63
+ 0.2 4 5 ping 64 ------- 0 4.0 5.0 -1 64
+ 0.2 5 0 ping 64 ------- 0 5.0 0.0 -1 65
+ 0.2 0 5 ping 64 ------- 0 0.0 5.0 -1 66
+ 0.2 1 2 ping 64 ------- 0 1.0 2.0 -1 67
+ 0.2 2 3 ping 64 ------- 0 2.0 3.0 -1 68
+ 0.2 3 4 ping 64 ------- 0 3.0 4.0 -1 69
+ 0.2 4 5 ping 64 ------- 0 4.0 5.0 -1 70
+ 0.2 5 0 ping 64 ------- 0 5.0 0.0 -1 71
+ 0.2 0 5 ping 64 ------- 0 0.0 5.0 -1 72
+ 0.2 1 2 ping 64 ------- 0 1.0 2.0 -1 73
+ 0.2 2 3 ping 64 ------- 0 2.0 3.0 -1 74
+ 0.2 3 4 ping 64 ------- 0 3.0 4.0 -1 75
+ 0.2 4 5 ping 64 ------- 0 4.0 5.0 -1 76
+ 0.2 5 0 ping 64 ------- 0 5.0 0.0 -1 77
+ 0.2 0 5 ping 64 ------- 0 0.0 5.0 -1 78
+ 0.2 1 2 ping 64 ------- 0 1.0 2.0 -1 79
+ 0.2 2 3 ping 64 ------- 0 2.0 3.0 -1 80
+ 0.2 3 4 ping 64 ------- 0 3.0 4.0 -1 81
+ 0.2 4 5 ping 64 ------- 0 4.0 5.0 -1 82
+ 0.2 5 0 ping 64 ------- 0 5.0 0.0 -1 83
+ 0.2 0 5 ping 64 ------- 0 0.0 5.0 -1 84
+ 0.2 1 2 ping 64 ------- 0 1.0 2.0 -1 85
+ 0.2 2 3 ping 64 ------- 0 2.0 3.0 -1 86
+ 0.2 3 4 ping 64 ------- 0 3.0 4.0 -1 87
+ 0.2 4 5 ping 64 ------- 0 4.0 5.0 -1 88
+ 0.2 5 0 ping 64 ------- 0 5.0 0.0 -1 89
+ 0.2 0 5 ping 64 ------- 0 0.0 5.0 -1 90
+ 0.2 1 2 ping 64 ------- 0 1.0 2.0 -1 91
+ 0.2 2 3 ping 64 ------- 0 2.0 3.0 -1 92
+ 0.2 3 4 ping 64 ------- 0 3.0 4.0 -1 93
+ 0.2 4 5 ping 64 ------- 0 4.0 5.0 -1 94
+ 0.2 5 0 ping 64 ------- 0 5.0 0.0 -1 95
+ 0.2 0 5 ping 64 ------- 0 0.0 5.0 -1 96
+ 0.2 1 2 ping 64 ------- 0 1.0 2.0 -1 97
+ 0.2 2 3 ping 64 ------- 0 2.0 3.0 -1 98
+ 0.2 3 4 ping 64 ------- 0 3.0 4.0 -1 99
+ 0.2 4 5 ping 64 ------- 0 4.0 5.0 -1 100
+ 0.2 5 0 ping 64 ------- 0 5.0 0.0 -1 101
+ 0.2 0 5 ping 64 ------- 0 0.0 5.0 -1 102
+ 0.2 1 2 ping 64 ------- 0 1.0 2.0 -1 103
+ 0.2 2 3 ping 64 ------- 0 2.0 3.0 -1 104
+ 0.2 3 4 ping 64 ------- 0 3.0 4.0 -1 105
+ 0.2 4 5 ping 64 ------- 0 4.0 5.0 -1 106
+ 0.2 5 0 ping 64 ------- 0 5.0 0.0 -1 107
+ 0.2 0 5 ping 64 ------- 0 0.0 5.0 -1 108
+ 0.2 1 2 ping 64 ------- 0 1.0 2.0 -1 109
+ 0.2 2 3 ping 64 ------- 0 2.0 3.0 -1 110
+ 0.2 3 4 ping 64 ------- 0 3.0 4.0 -1 111
+ 0.2 4 5 ping 64 ------- 0 4.0 5.0 -1 112
+ 0.2 5 0 ping 64 ------- 0 5.0 0.0 -1 113
+ 0.2 0 5 ping 64 ------- 0 0.0 5.0 -1 114
+ 0.2 1 2 ping 64 ------- 0 1.0 2.0 -1 115
+ 0.2 2 3 ping 64 ------- 0 2.0 3.0 -1 116
+ 0.2 3 4 ping 64 ------- 0 3.0 4.0 -1 117
+ 0.2 4 5 ping 64 ------- 0 4.0 5.0 -1 118
+ 0.2 5 0 ping 64 ------- 0 5.0 0.0 -1 119
+ 0.2 0 5 ping 64 ------- 0 0.0 5.0 -1 120
+ 0.2 1 2 ping 64 ------- 0 1.0 2.0 -1 121
+ 0.2 2 3 ping 64 ------- 0 2.0 3.0 -1 122
+ 0.2 3 4 ping 64 ------- 0 3.0 4.0 -1 123
+ 0.2 4 5 ping 64 ------- 0 4.0 5.0 -1 124
+ 0.2 5 0 ping 64 ------- 0 5.0 0.0 -1 125
+ 0.2 0 5 ping 64 ------- 0 0.0 5.0 -1 126
+ 0.2 1 2 ping 64 ------- 0 1.0 2.0 -1 127
+ 0.2 2 3 ping 64 ------- 0 2.0 3.0 -1 128
+ 0.2 3 4 ping 64 ------- 0 3.0 4.0 -1 129
+ 0.2 4 5 ping 64 ------- 0 4.0 5.0 -1 130
+ 0.2 5 0 ping 64 ------- 0 5.0 0.0 -1 131
+ 0.2 0 5 ping 64 ------- 0 0.0 5.0 -1 132
+ 0.2 1 2 ping 64 ------- 0 1.0 2.0 -1 133
+ 0.2 2 3 ping 64 ------- 0 2.0 3.0 -1 134
+ 0.2 3 4 ping 64 ------- 0 3.0 4.0 -1 135
+ 0.2 4 5 ping 64 ------- 0 4.0 5.0 -1 136
+ 0.2 5 0 ping 64 ------- 0 5.0 0.0 -1 137
+ 0.2 0 5 ping 64 ------- 0 0.0 5.0 -1 138
+ 0.2 1 2 ping 64 ------- 0 1.0 2.0 -1 139
+ 0.2 2 3 ping 64 ------- 0 2.0 3.0 -1 140
+ 0.2 3 4 ping 64 ------- 0 3.0 4.0 -1 141
+ 0.2 4 5 ping 64 ------- 0 4.0 5.0 -1 142
+ 0.2 5 0 ping 64 ------- 0 5.0 0.0 -1 143
+ 0.2 0 5 ping 64 ------- 0 0.0 5.0 -1 144
+ 0.2 1 2 ping 64 ------- 0 1.0 2.0 -1 145
+ 0.2 2 3 ping 64 ------- 0 2.0 3.0 -1 146
+ 0.2 3 4 ping 64 ------- 0 3.0 4.0 -1 147
+ 0.2 4 5 ping 64 ------- 0 4.0 5.0 -1 148
+ 0.2 5 0 ping 64 ------- 0 5.0 0.0 -1 149
+ 0.2 0 5 ping 64 ------- 0 0.0 5.0 -1 150
+ 0.2 1 2 ping 64 ------- 0 1.0 2.0 -1 151
+ 0.2 2 3 ping 64 ------- 0 2.0 3.0 -1 152
+ 0.2 3 4 ping 64 ------- 0 3.0 4.0 -1 153
+ 0.2 4 5 ping 64 ------- 0 4.0 5.0 -1 154
+ 0.2 5 0 ping 64 ------- 0 5.0 0.0 -1 155
+ 0.2 0 5 ping 64 ------- 0 0.0 5.0 -1 156
+ 0.2 1 2 ping 64 ------- 0 1.0 2.0 -1 157
+ 0.2 2 3 ping 64 ------- 0 2.0 3.0 -1 158
+ 0.2 3 4 ping 64 ------- 0 3.0 4.0 -1 159
+ 0.2 4 5 ping 64 ------- 0 4.0 5.0 -1 160
+ 0.2 5 0 ping 64 ------- 0 5.0 0.0 -1 161
+ 0.2 0 5 ping 64 ------- 0 0.0 5.0 -1 162
+ 0.2 1 2 ping 64 ------- 0 1.0 2.0 -1 163
+ 0.2 2 3 ping 64 ------- 0 2.0 3.0 -1 164
+ 0.2 3 4 ping 64 ------- 0 3.0 4.0 -1 165
+ 0.2 4 5 ping 64 ------- 0 4.0 5.0 -1 166
+ 0.2 5 0 ping 64 ------- 0 5.0 0.0 -1 167
+ 0.2 0 5 ping 64 ------- 0 0.0 5.0 -1 168
+ 0.2 1 2 ping 64 ------- 0 1.0 2.0 -1 169
+ 0.2 2 3 ping 64 ------- 0 2.0 3.0 -1 170
+ 0.2 3 4 ping 64 ------- 0 3.0 4.0 -1 171
+ 0.2 4 5 ping 64 ------- 0 4.0 5.0 -1 172
+ 0.2 5 0 ping 64 ------- 0 5.0 0.0 -1 173
+ 0.2 0 5 ping 64 ------- 0 0.0 5.0 -1 174
+ 0.2 1 2 ping 64 ------- 0 1.0 2.0 -1 175
+ 0.2 2 3 ping 64 ------- 0 2.0 3.0 -1 176
+ 0.2 3 4 ping 64 ------- 0 3.0 4.0 -1 177
+ 0.2 4 5 ping 64 ------- 0 4.0 5.0 -1 178
+ 0.2 5 0 ping 64 ------- 0 5.0 0.0 -1 179
+ 0.2 0 5 ping 64 ------- 0 0.0 5.0 -1 180
+ 0.2 1 2 ping 64 ------- 0 1.0 2.0 -1 181
+ 0.2 2 3 ping 64 ------- 0 2.0 3.0 -1 182
+ 0.2 3 4 ping 64 ------- 0 3.0 4.0 -1 183
+ 0.2 4 5 ping 64 ------- 0 4.0 5.0 -1 184
+ 0.2 5 0 ping 64 ------- 0 5.0 0.0 -1 185
+ 0.2 0 5 ping 64 ------- 0 0.0 5.0 -1 186
+ 0.2 1 2 ping 64 ------- 0 1.0 2.0 -1 187
+ 0.2 2 3 ping 64 ------- 0 2.0 3.0 -1 188
+ 0.2 3 4 ping 64 ------- 0 3.0 4.0 -1 189
+ 0.2 4 5 ping 64 ------- 0 4.0 5.0 -1 190
+ 0.2 5 0 ping 64 ------- 0 5.0 0.0 -1 191
+ 0.2 0 5 ping 64 ------- 0 0.0 5.0 -1 192
+ 0.2 1 2 ping 64 ------- 0 1.0 2.0 -1 193
+ 0.2 2 3 ping 64 ------- 0 2.0 3.0 -1 194
+ 0.2 3 4 ping 64 ------- 0 3.0 4.0 -1 195
+ 0.2 4 5 ping 64 ------- 0 4.0 5.0 -1 196
+ 0.2 5 0 ping 64 ------- 0 5.0 0.0 -1 197
+ 0.2 0 5 ping 64 ------- 0 0.0 5.0 -1 198
+ 0.2 1 2 ping 64 ------- 0 1.0 2.0 -1 199
+ 0.2 2 3 ping 64 ------- 0 2.0 3.0 -1 200
+ 0.2 3 4 ping 64 ------- 0 3.0 4.0 -1 201
+ 0.2 4 5 ping 64 ------- 0 4.0 5.0 -1 202
+ 0.2 5 0 ping 64 ------- 0 5.0 0.0 -1 203
+ 0.2 0 5 ping 64 ------- 0 0.0 5.0 -1 204
+ 0.2 1 2 ping 64 ------- 0 1.0 2.0 -1 205
+ 0.2 2 3 ping 64 ------- 0 2.0 3.0 -1 206
+ 0.2 3 4 ping 64 ------- 0 3.0 4.0 -1 207
+ 0.2 4 5 ping 64 ------- 0 4.0 5.0 -1 208
+ 0.2 5 0 ping 64 ------- 0 5.0 0.0 -1 209
+ 0.2 0 5 ping 64 ------- 0 0.0 5.0 -1 210
+ 0.2 1 2 ping 64 ------- 0 1.0 2.0 -1 211
+ 0.2 2 3 ping 64 ------- 0 2.0 3.0 -1 212
+ 0.2 3 4 ping 64 ------- 0 3.0 4.0 -1 213
+ 0.2 4 5 ping 64 ------- 0 4.0 5.0 -1 214
+ 0.2 5 0 ping 64 ------- 0 5.0 0.0 -1 215
+ 0.2 0 5 ping 64 ------- 0 0.0 5.0 -1 216
+ 0.2 1 2 ping 64 ------- 0 1.0 2.0 -1 217
+ 0.2 2 3 ping 64 ------- 0 2.0 3.0 -1 218
+ 0.2 3 4 ping 64 ------- 0 3.0 4.0 -1 219
+ 0.2 4 5 ping 64 ------- 0 4.0 5.0 -1 220
+ 0.2 5 0 ping 64 ------- 0 5.0 0.0 -1 221
+ 0.2 0 5 ping 64 ------- 0 0.0 5.0 -1 222
+ 0.2 1 2 ping 64 ------- 0 1.0 2.0 -1 223
+ 0.2 2 3 ping 64 ------- 0 2.0 3.0 -1 224
+ 0.2 3 4 ping 64 ------- 0 3.0 4.0 -1 225
+ 0.2 4 5 ping 64 ------- 0 4.0 5.0 -1 226
+ 0.2 5 0 ping 64 ------- 0 5.0 0.0 -1 227
+ 0.2 0 5 ping 64 ------- 0 0.0 5.0 -1 228
+ 0.2 1 2 ping 64 ------- 0 1.0 2.0 -1 229
+ 0.2 2 3 ping 64 ------- 0 2.0 3.0 -1 230
+ 0.2 3 4 ping 64 ------- 0 3.0 4.0 -1 231
+ 0.2 4 5 ping 64 ------- 0 4.0 5.0 -1 232
+ 0.2 5 0 ping 64 ------- 0 5.0 0.0 -1 233
+ 0.2 0 5 ping 64 ------- 0 0.0 5.0 -1 234
+ 0.2 1 2 ping 64 ------- 0 1.0 2.0 -1 235
+ 0.2 2 3 ping 64 ------- 0 2.0 3.0 -1 236
+ 0.2 3 4 ping 64 ------- 0 3.0 4.0 -1 237
+ 0.2 4 5 ping 64 ------- 0 4.0 5.0 -1 238
+ 0.2 5 0 ping 64 ------- 0 5.0 0.0 -1 239
+ 0.2 0 5 ping 64 ------- 0 0.0 5.0 -1 240
+ 0.2 1 2 ping 64 ------- 0 1.0 2.0 -1 241
+ 0.2 2 3 ping 64 ------- 0 2.0 3.0 -1 242
+ 0.2 3 4 ping 64 ------- 0 3.0 4.0 -1 243
+ 0.2 4 5 ping 64 ------- 0 4.0 5.0 -1 244
+ 0.2 5 0 ping 64 ------- 0 5.0 0.0 -1 245
+ 0.2 0 5 ping 64 ------- 0 0.0 5.0 -1 246
+ 0.2 1 2 ping 64 ------- 0 1.0 2.0 -1 247
+ 0.2 2 3 ping 64 ------- 0 2.0 3.0 -1 248
+ 0.2 3 4 ping 64 ------- 0 3.0 4.0 -1 249
+ 0.2 4 5 ping 64 ------- 0 4.0 5.0 -1 250
+ 0.2 5 0 ping 64 ------- 0 5.0 0.0 -1 251
+ 0.2 0 5 ping 64 ------- 0 0.0 5.0 -1 252
+ 0.2 1 2 ping 64 ------- 0 1.0 2.0 -1 253
+ 0.2 2 3 ping 64 ------- 0 2.0 3.0 -1 254
+ 0.2 3 4 ping 64 ------- 0 3.0 4.0 -1 255
+ 0.2 4 5 ping 64 ------- 0 4.0 5.0 -1 256
+ 0.2 5 0 ping 64 ------- 0 5.0 0.0 -1 257
+ 0.2 0 5 ping 64 ------- 0 0.0 5.0 -1 258
+ 0.2 1 2 ping 64 ------- 0 1.0 2.0 -1 259
+ 0.2 2 3 ping 64 ------- 0 2.0 3.0 -1 260
+ 0.2 3 4 ping 64 ------- 0 3.0 4.0 -1 261
+ 0.2 4 5 ping 64 ------- 0 4.0 5.0 -1 262
+ 0.2 5 0 ping 64 ------- 0 5.0 0.0 -1 263
+ 0.2 0 5 ping 64 ------- 0 0.0 5.0 -1 264
+ 0.2 1 2 ping 64 ------- 0 1.0 2.0 -1 265
+ 0.2 2 3 ping 64 ------- 0 2.0 3.0 -1 266
+ 0.2 3 4 ping 64 ------- 0 3.0 4.0 -1 267
+ 0.2 4 5 ping 64 ------- 0 4.0 5.0 -1 268
+ 0.2 5 0 ping 64 ------- 0 5.0 0.0 -1 269
+ 0.2 0 5 ping 64 ------- 0 0.0 5.0 -1 270
+ 0.2 1 2 ping 64 ------- 0 1.0 2.0 -1 271
+ 0.2 2 3 ping 64 ------- 0 2.0 3.0 -1 272
+ 0.2 3 4 ping 64 ------- 0 3.0 4.0 -1 273
+ 0.2 4 5 ping 64 ------- 0 4.0 5.0 -1 274
+ 0.2 5 0 ping 64 ------- 0 5.0 0.0 -1 275
+ 0.2 0 5 ping 64 ------- 0 0.0 5.0 -1 276
+ 0.2 1 2 ping 64 ------- 0 1.0 2.0 -1 277
+ 0.2 2 3 ping 64 ------- 0 2.0 3.0 -1 278
+ 0.2 3 4 ping 64 ------- 0 3.0 4.0 -1 279
+ 0.2 4 5 ping 64 ------- 0 4.0 5.0 -1 280
+ 0.2 5 0 ping 64 ------- 0 5.0 0.0 -1 281
+ 0.2 0 5 ping 64 ------- 0 0.0 5.0 -1 282
+ 0.2 1 2 ping 64 ------- 0 1.0 2.0 -1 283
+ 0.2 2 3 ping 64 ------- 0 2.0 3.0 -1 284
+ 0.2 3 4 ping 64 ------- 0 3.0 4.0 -1 285
+ 0.2 4 5 ping 64 ------- 0 4.0 5.0 -1 286
+ 0.2 5 0 ping 64 ------- 0 5.0 0.0 -1 287
+ 0.2 0 5 ping 64 ------- 0 0.0 5.0 -1 288
+ 0.2 1 2 ping 64 ------- 0 1.0 2.0 -1 289
+ 0.2 2 3 ping 64 ------- 0 2.0 3.0 -1 290
+ 0.2 3 4 ping 64 ------- 0 3.0 4.0 -1 291
+ 0.2 4 5 ping 64 ------- 0 4.0 5.0 -1 292
+ 0.2 5 0 ping 64 ------- 0 5.0 0.0 -1 293
+ 0.2 0 5 ping 64 ------- 0 0.0 5.0 -1 294
+ 0.2 1 2 ping 64 ------- 0 1.0 2.0 -1 295
+ 0.2 2 3 ping 64 ------- 0 2.0 3.0 -1 296
+ 0.2 3 4 ping 64 ------- 0 3.0 4.0 -1 297
+ 0.2 4 5 ping 64 ------- 0 4.0 5.0 -1 298
+ 0.2 5 0 ping 64 ------- 0 5.0 0.0 -1 299
- 0.2512 0 5 ping 64 ------- 0 0.0 5.0 -1 6
- 0.2512 1 2 ping 64 ------- 0 1.0 2.0 -1 7
- 0.2512 2 3 ping 64 ------- 0 2.0 3.0 -1 8
- 0.2512 3 4 ping 64 ------- 0 3.0 4.0 -1 9
- 0.2512 4 5 ping 64 ------- 0 4.0 5.0 -1 10
- 0.2512 5 0 ping 64 ------- 0 5.0 0.0 -1 11
r 0.2612 0 5 ping 64 ------- 0 0.0 5.0 -1 0
+ 0.2612 5 0 ping 64 ------- 0 5.0 0.0 -1 300
r 0.2612 1 2 ping 64 ------- 0 1.0 2.0 -1 1
+ 0.2612 2 3 ping 64 ------- 0 2.0 3.0 -1 301
r 0.2612 2 3 ping 64 ------- 0 2.0 3.0 -1 2
+ 0.2612 3 4 ping 64 ------- 0 3.0 4.0 -1 302
r 0.2612 3 4 ping 64 ------- 0 3.0 4.0 -1 3
+ 0.2612 4 5 ping 64 ------- 0 4.0 5.0 -1 303
r 0.2612 4 5 ping 64 ------- 0 4.0 5.0 -1 4
+ 0.2612 5 0 ping 64 ------- 0 5.0 0.0 -1 304
d 0.2612 5 0 ping 64 ------- 0 5.0 0.0 -1 304
r 0.2612 5 0 ping 64 ------- 0 5.0 0.0 -1 5
+ 0.2612 0 5 ping 64 ------- 0 0.0 5.0 -1 305
- 0.3024 0 5 ping 64 ------- 0 0.0 5.0 -1 12
- 0.3024 1 2 ping 64 ------- 0 1.0 2.0 -1 13
- 0.3024 2 3 ping 64 ------- 0 2.0 3.0 -1 14
- 0.3024 3 4 ping 64 ------- 0 3.0 4.0 -1 15
- 0.3024 4 5 ping 64 ------- 0 4.0 5.0 -1 16
- 0.3024 5 0 ping 64 ------- 0 5.0 0.0 -1 17
r 0.3124 0 5 ping 64 ------- 0 0.0 5.0 -1 6
+ 0.3124 5 0 ping 64 ------- 0 5.0 0.0 -1 306
r 0.3124 1 2 ping 64 ------- 0 1.0 2.0 -1 7
+ 0.3124 2 3 ping 64 ------- 0 2.0 3.0 -1 307
r 0.3124 2 3 ping 64 ------- 0 2.0 3.0 -1 8
+ 0.3124 3 4 ping 64 ------- 0 3.0 4.0 -1 308
r 0.3124 3 4 ping 64 ------- 0 3.0 4.0 -1 9
+ 0.3124 4 5 ping 64 ------- 0 4.0 5.0 -1 309
r 0.3124 4 5 ping 64 ------- 0 4.0 5.0 -1 10
+ 0.3124 5 0 ping 64 ------- 0 5.0 0.0 -1 310
d 0.3124 5 0 ping 64 ------- 0 5.0 0.0 -1 310
r 0.3124 5 0 ping 64 ------- 0 5.0 0.0 -1 11
+ 0.3124 0 5 ping 64 ------- 0 0.0 5.0 -1 311
- 0.3536 0 5 ping 64 ------- 0 0.0 5.0 -1 18
- 0.3536 1 2 ping 64 ------- 0 1.0 2.0 -1 19
- 0.3536 2 3 ping 64 ------- 0 2.0 3.0 -1 20
- 0.3536 3 4 ping 64 ------- 0 3.0 4.0 -1 21
- 0.3536 4 5 ping 64 ------- 0 4.0 5.0 -1 22
- 0.3536 5 0 ping 64 ------- 0 5.0 0.0 -1 23
r 0.3636 0 5 ping 64 ------- 0 0.0 5.0 -1 12
+ 0.3636 5 0 ping 64 ------- 0 5.0 0.0 -1 312
r 0.3636 1 2 ping 64 ------- 0 1.0 2.0 -1 13
+ 0.3636 2 3 ping 64 ------- 0 2.0 3.0 -1 313
r 0.3636 2 3 ping 64 ------- 0 2.0 3.0 -1 14
+ 0.3636 3 4 ping 64 ------- 0 3.0 4.0 -1 314
r 0.3636 3 4 ping 64 ------- 0 3.0 4.0 -1 15
+ 0.3636 4 5 ping 64 ------- 0 4.0 5.0 -1 315
r 0.3636 4 5 ping 64 ------- 0 4.0 5.0 -1 16
+ 0.3636 5 0 ping 64 ------- 0 5.0 0.0 -1 316
d 0.3636 5 0 ping 64 ------- 0 5.0 0.0 -1 316
r 0.3636 5 0 ping 64 ------- 0 5.0 0.0 -1 17
+ 0.3636 0 5 ping 64 ------- 0 0.0 5.0 -1 317
- 0.4048 0 5 ping 64 ------- 0 0.0 5.0 -1 24
- 0.4048 1 2 ping 64 ------- 0 1.0 2.0 -1 25
- 0.4048 2 3 ping 64 ------- 0 2.0 3.0 -1 26
- 0.4048 3 4 ping 64 ------- 0 3.0 4.0 -1 27
- 0.4048 4 5 ping 64 ------- 0 4.0 5.0 -1 28
- 0.4048 5 0 ping 64 ------- 0 5.0 0.0 -1 29
r 0.4148 0 5 ping 64 ------- 0 0.0 5.0 -1 18
+ 0.4148 5 0 ping 64 ------- 0 5.0 0.0 -1 318
r 0.4148 1 2 ping 64 ------- 0 1.0 2.0 -1 19
+ 0.4148 2 3 ping 64 ------- 0 2.0 3.0 -1 319
r 0.4148 2 3 ping 64 ------- 0 2.0 3.0 -1 20
+ 0.4148 3 4 ping 64 ------- 0 3.0 4.0 -1 320
r 0.4148 3 4 ping 64 ------- 0 3.0 4.0 -1 21
+ 0.4148 4 5 ping 64 ------- 0 4.0 5.0 -1 321
r 0.4148 4 5 ping 64 ------- 0 4.0 5.0 -1 22
+ 0.4148 5 0 ping 64 ------- 0 5.0 0.0 -1 322
d 0.4148 5 0 ping 64 ------- 0 5.0 0.0 -1 322
r 0.4148 5 0 ping 64 ------- 0 5.0 0.0 -1 23
+ 0.4148 0 5 ping 64 ------- 0 0.0 5.0 -1 323
- 0.456 0 5 ping 64 ------- 0 0.0 5.0 -1 30
- 0.456 1 2 ping 64 ------- 0 1.0 2.0 -1 31
- 0.456 2 3 ping 64 ------- 0 2.0 3.0 -1 32
- 0.456 3 4 ping 64 ------- 0 3.0 4.0 -1 33
- 0.456 4 5 ping 64 ------- 0 4.0 5.0 -1 34
- 0.456 5 0 ping 64 ------- 0 5.0 0.0 -1 35
r 0.466 0 5 ping 64 ------- 0 0.0 5.0 -1 24
+ 0.466 5 0 ping 64 ------- 0 5.0 0.0 -1 324
r 0.466 1 2 ping 64 ------- 0 1.0 2.0 -1 25
+ 0.466 2 3 ping 64 ------- 0 2.0 3.0 -1 325
r 0.466 2 3 ping 64 ------- 0 2.0 3.0 -1 26
+ 0.466 3 4 ping 64 ------- 0 3.0 4.0 -1 326
r 0.466 3 4 ping 64 ------- 0 3.0 4.0 -1 27
+ 0.466 4 5 ping 64 ------- 0 4.0 5.0 -1 327
r 0.466 4 5 ping 64 ------- 0 4.0 5.0 -1 28
+ 0.466 5 0 ping 64 ------- 0 5.0 0.0 -1 328
d 0.466 5 0 ping 64 ------- 0 5.0 0.0 -1 328
r 0.466 5 0 ping 64 ------- 0 5.0 0.0 -1 29
+ 0.466 0 5 ping 64 ------- 0 0.0 5.0 -1 329
- 0.5072 0 5 ping 64 ------- 0 0.0 5.0 -1 36
- 0.5072 1 2 ping 64 ------- 0 1.0 2.0 -1 37
- 0.5072 2 3 ping 64 ------- 0 2.0 3.0 -1 38
- 0.5072 3 4 ping 64 ------- 0 3.0 4.0 -1 39
- 0.5072 4 5 ping 64 ------- 0 4.0 5.0 -1 40
- 0.5072 5 0 ping 64 ------- 0 5.0 0.0 -1 41
r 0.5172 0 5 ping 64 ------- 0 0.0 5.0 -1 30
+ 0.5172 5 0 ping 64 ------- 0 5.0 0.0 -1 330
r 0.5172 1 2 ping 64 ------- 0 1.0 2.0 -1 31
+ 0.5172 2 3 ping 64 ------- 0 2.0 3.0 -1 331
r 0.5172 2 3 ping 64 ------- 0 2.0 3.0 -1 32
+ 0.5172 3 4 ping 64 ------- 0 3.0 4.0 -1 332
r 0.5172 3 4 ping 64 ------- 0 3.0 4.0 -1 33
+ 0.5172 4 5 ping 64 ------- 0 4.0 5.0 -1 333
r 0.5172 4 5 ping 64 ------- 0 4.0 5.0 -1 34
+ 0.5172 5 0 ping 64 ------- 0 5.0 0.0 -1 334
d 0.5172 5 0 ping 64 ------- 0 5.0 0.0 -1 334
r 0.5172 5 0 ping 64 ------- 0 5.0 0.0 -1 35
+ 0.5172 0 5 ping 64 ------- 0 0.0 5.0 -1 335
- 0.5584 0 5 ping 64 ------- 0 0.0 5.0 -1 42
- 0.5584 1 2 ping 64 ------- 0 1.0 2.0 -1 43
- 0.5584 2 3 ping 64 ------- 0 2.0 3.0 -1 44
- 0.5584 3 4 ping 64 ------- 0 3.0 4.0 -1 45
- 0.5584 4 5 ping 64 ------- 0 4.0 5.0 -1 46
- 0.5584 5 0 ping 64 ------- 0 5.0 0.0 -1 47
r 0.5684 0 5 ping 64 ------- 0 0.0 5.0 -1 36
+ 0.5684 5 0 ping 64 ------- 0 5.0 0.0 -1 336
r 0.5684 1 2 ping 64 ------- 0 1.0 2.0 -1 37
+ 0.5684 2 3 ping 64 ------- 0 2.0 3.0 -1 337
r 0.5684 2 3 ping 64 ------- 0 2.0 3.0 -1 38
+ 0.5684 3 4 ping 64 ------- 0 3.0 4.0 -1 338
r 0.5684 3 4 ping 64 ------- 0 3.0 4.0 -1 39
+ 0.5684 4 5 ping 64 ------- 0 4.0 5.0 -1 339
r 0.5684 4 5 ping 64 ------- 0 4.0 5.0 -1 40
+ 0.5684 5 0 ping 64 ------- 0 5.0 0.0 -1 340
d 0.5684 5 0 ping 64 ------- 0 5.0 0.0 -1 340
r 0.5684 5 0 ping 64 ------- 0 5.0 0.0 -1 41
+ 0.5684 0 5 ping 64 ------- 0 0.0 5.0 -1 341
- 0.6096 0 5 ping 64 ------- 0 0.0 5.0 -1 48
- 0.6096 1 2 ping 64 ------- 0 1.0 2.0 -1 49
- 0.6096 2 3 ping 64 ------- 0 2.0 3.0 -1 50
- 0.6096 3 4 ping 64 ------- 0 3.0 4.0 -1 51
- 0.6096 4 5 ping 64 ------- 0 4.0 5.0 -1 52
- 0.6096 5 0 ping 64 ------- 0 5.0 0.0 -1 53
r 0.6196 0 5 ping 64 ------- 0 0.0 5.0 -1 42
+ 0.6196 5 0 ping 64 ------- 0 5.0 0.0 -1 342
r 0.6196 1 2 ping 64 ------- 0 1.0 2.0 -1 43
+ 0.6196 2 3 ping 64 ------- 0 2.0 3.0 -1 343
r 0.6196 2 3 ping 64 ------- 0 2.0 3.0 -1 44
+ 0.6196 3 4 ping 64 ------- 0 3.0 4.0 -1 344
r 0.6196 3 4 ping 64 ------- 0 3.0 4.0 -1 45
+ 0.6196 4 5 ping 64 ------- 0 4.0 5.0 -1 345
r 0.6196 4 5 ping 64 ------- 0 4.0 5.0 -1 46
+ 0.6196 5 0 ping 64 ------- 0 5.0 0.0 -1 346
d 0.6196 5 0 ping 64 ------- 0 5.0 0.0 -1 346
r 0.6196 5 0 ping 64 ------- 0 5.0 0.0 -1 47
+ 0.6196 0 5 ping 64 ------- 0 0.0 5.0 -1 347
- 0.6608 0 5 ping 64 ------- 0 0.0 5.0 -1 54
- 0.6608 1 2 ping 64 ------- 0 1.0 2.0 -1 55
- 0.6608 2 3 ping 64 ------- 0 2.0 3.0 -1 56
- 0.6608 3 4 ping 64 ------- 0 3.0 4.0 -1 57
- 0.6608 4 5 ping 64 ------- 0 4.0 5.0 -1 58
- 0.6608 5 0 ping 64 ------- 0 5.0 0.0 -1 59
r 0.6708 0 5 ping 64 ------- 0 0.0 5.0 -1 48
+ 0.6708 5 0 ping 64 ------- 0 5.0 0.0 -1 348
r 0.6708 1 2 ping 64 ------- 0 1.0 2.0 -1 49
+ 0.6708 2 3 ping 64 ------- 0 2.0 3.0 -1 349
r 0.6708 2 3 ping 64 ------- 0 2.0 3.0 -1 50
+ 0.6708 3 4 ping 64 ------- 0 3.0 4.0 -1 350
r 0.6708 3 4 ping 64 ------- 0 3.0 4.0 -1 51
+ 0.6708 4 5 ping 64 ------- 0 4.0 5.0 -1 351
r 0.6708 4 5 ping 64 ------- 0 4.0 5.0 -1 52
+ 0.6708 5 0 ping 64 ------- 0 5.0 0.0 -1 352
d 0.6708 5 0 ping 64 ------- 0 5.0 0.0 -1 352
r 0.6708 5 0 ping 64 ------- 0 5.0 0.0 -1 53
+ 0.6708 0 5 ping 64 ------- 0 0.0 5.0 -1 353
- 0.712 0 5 ping 64 ------- 0 0.0 5.0 -1 60
- 0.712 1 2 ping 64 ------- 0 1.0 2.0 -1 61
- 0.712 2 3 ping 64 ------- 0 2.0 3.0 -1 62
- 0.712 3 4 ping 64 ------- 0 3.0 4.0 -1 63
- 0.712 4 5 ping 64 ------- 0 4.0 5.0 -1 64
- 0.712 5 0 ping 64 ------- 0 5.0 0.0 -1 65
r 0.722 0 5 ping 64 ------- 0 0.0 5.0 -1 54
+ 0.722 5 0 ping 64 ------- 0 5.0 0.0 -1 354
r 0.722 1 2 ping 64 ------- 0 1.0 2.0 -1 55
+ 0.722 2 3 ping 64 ------- 0 2.0 3.0 -1 355
r 0.722 2 3 ping 64 ------- 0 2.0 3.0 -1 56
+ 0.722 3 4 ping 64 ------- 0 3.0 4.0 -1 356
r 0.722 3 4 ping 64 ------- 0 3.0 4.0 -1 57
+ 0.722 4 5 ping 64 ------- 0 4.0 5.0 -1 357
r 0.722 4 5 ping 64 ------- 0 4.0 5.0 -1 58
+ 0.722 5 0 ping 64 ------- 0 5.0 0.0 -1 358
d 0.722 5 0 ping 64 ------- 0 5.0 0.0 -1 358
r 0.722 5 0 ping 64 ------- 0 5.0 0.0 -1 59
+ 0.722 0 5 ping 64 ------- 0 0.0 5.0 -1 359
- 0.7632 0 5 ping 64 ------- 0 0.0 5.0 -1 66
- 0.7632 1 2 ping 64 ------- 0 1.0 2.0 -1 67
- 0.7632 2 3 ping 64 ------- 0 2.0 3.0 -1 68
- 0.7632 3 4 ping 64 ------- 0 3.0 4.0 -1 69
- 0.7632 4 5 ping 64 ------- 0 4.0 5.0 -1 70
- 0.7632 5 0 ping 64 ------- 0 5.0 0.0 -1 71
r 0.7732 0 5 ping 64 ------- 0 0.0 5.0 -1 60
+ 0.7732 5 0 ping 64 ------- 0 5.0 0.0 -1 360
r 0.7732 1 2 ping 64 ------- 0 1.0 2.0 -1 61
+ 0.7732 2 3 ping 64 ------- 0 2.0 3.0 -1 361
r 0.7732 2 3 ping 64 ------- 0 2.0 3.0 -1 62
+ 0.7732 3 4 ping 64 ------- 0 3.0 4.0 -1 362
r 0.7732 3 4 ping 64 ------- 0 3.0 4.0 -1 63
+ 0.7732 4 5 ping 64 ------- 0 4.0 5.0 -1 363
r 0.7732 4 5 ping 64 ------- 0 4.0 5.0 -1 64
+ 0.7732 5 0 ping 64 ------- 0 5.0 0.0 -1 364
d 0.7732 5 0 ping 64 ------- 0 5.0 0.0 -1 364
r 0.7732 5 0 ping 64 ------- 0 5.0 0.0 -1 65
+ 0.7732 0 5 ping 64 ------- 0 0.0 5.0 -1 365
- 0.8144 0 5 ping 64 ------- 0 0.0 5.0 -1 72
- 0.8144 1 2 ping 64 ------- 0 1.0 2.0 -1 73
- 0.8144 2 3 ping 64 ------- 0 2.0 3.0 -1 74
- 0.8144 3 4 ping 64 ------- 0 3.0 4.0 -1 75
- 0.8144 4 5 ping 64 ------- 0 4.0 5.0 -1 76
- 0.8144 5 0 ping 64 ------- 0 5.0 0.0 -1 77
r 0.8244 0 5 ping 64 ------- 0 0.0 5.0 -1 66
+ 0.8244 5 0 ping 64 ------- 0 5.0 0.0 -1 366
r 0.8244 1 2 ping 64 ------- 0 1.0 2.0 -1 67
+ 0.8244 2 3 ping 64 ------- 0 2.0 3.0 -1 367
r 0.8244 2 3 ping 64 ------- 0 2.0 3.0 -1 68
+ 0.8244 3 4 ping 64 ------- 0 3.0 4.0 -1 368
r 0.8244 3 4 ping 64 ------- 0 3.0 4.0 -1 69
+ 0.8244 4 5 ping 64 ------- 0 4.0 5.0 -1 369
r 0.8244 4 5 ping 64 ------- 0 4.0 5.0 -1 70
+ 0.8244 5 0 ping 64 ------- 0 5.0 0.0 -1 370
d 0.8244 5 0 ping 64 ------- 0 5.0 0.0 -1 370
r 0.8244 5 0 ping 64 ------- 0 5.0 0.0 -1 71
+ 0.8244 0 5 ping 64 ------- 0 0.0 5.0 -1 371
- 0.8656 0 5 ping 64 ------- 0 0.0 5.0 -1 78
- 0.8656 1 2 ping 64 ------- 0 1.0 2.0 -1 79
- 0.8656 2 3 ping 64 ------- 0 2.0 3.0 -1 80
- 0.8656 3 4 ping 64 ------- 0 3.0 4.0 -1 81
- 0.8656 4 5 ping 64 ------- 0 4.0 5.0 -1 82
- 0.8656 5 0 ping 64 ------- 0 5.0 0.0 -1 83
r 0.8756 0 5 ping 64 ------- 0 0.0 5.0 -1 72
+ 0.8756 5 0 ping 64 ------- 0 5.0 0.0 -1 372
r 0.8756 1 2 ping 64 ------- 0 1.0 2.0 -1 73
+ 0.8756 2 3 ping 64 ------- 0 2.0 3.0 -1 373
r 0.8756 2 3 ping 64 ------- 0 2.0 3.0 -1 74
+ 0.8756 3 4 ping 64 ------- 0 3.0 4.0 -1 374
r 0.8756 3 4 ping 64 ------- 0 3.0 4.0 -1 75
+ 0.8756 4 5 ping 64 ------- 0 4.0 5.0 -1 375
r 0.8756 4 5 ping 64 ------- 0 4.0 5.0 -1 76
+ 0.8756 5 0 ping 64 ------- 0 5.0 0.0 -1 376
d 0.8756 5 0 ping 64 ------- 0 5.0 0.0 -1 376
r 0.8756 5 0 ping 64 ------- 0 5.0 0.0 -1 77
+ 0.8756 0 5 ping 64 ------- 0 0.0 5.0 -1 377
- 0.9168 0 5 ping 64 ------- 0 0.0 5.0 -1 84
- 0.9168 1 2 ping 64 ------- 0 1.0 2.0 -1 85
- 0.9168 2 3 ping 64 ------- 0 2.0 3.0 -1 86
- 0.9168 3 4 ping 64 ------- 0 3.0 4.0 -1 87
- 0.9168 4 5 ping 64 ------- 0 4.0 5.0 -1 88
- 0.9168 5 0 ping 64 ------- 0 5.0 0.0 -1 89
r 0.9268 0 5 ping 64 ------- 0 0.0 5.0 -1 78
+ 0.9268 5 0 ping 64 ------- 0 5.0 0.0 -1 378
r 0.9268 1 2 ping 64 ------- 0 1.0 2.0 -1 79
+ 0.9268 2 3 ping 64 ------- 0 2.0 3.0 -1 379
r 0.9268 2 3 ping 64 ------- 0 2.0 3.0 -1 80
+ 0.9268 3 4 ping 64 ------- 0 3.0 4.0 -1 380
r 0.9268 3 4 ping 64 ------- 0 3.0 4.0 -1 81
+ 0.9268 4 5 ping 64 ------- 0 4.0 5.0 -1 381
r 0.9268 4 5 ping 64 ------- 0 4.0 5.0 -1 82
+ 0.9268 5 0 ping 64 ------- 0 5.0 0.0 -1 382
d 0.9268 5 0 ping 64 ------- 0 5.0 0.0 -1 382
r 0.9268 5 0 ping 64 ------- 0 5.0 0.0 -1 83
+ 0.9268 0 5 ping 64 ------- 0 0.0 5.0 -1 383
- 0.968 0 5 ping 64 ------- 0 0.0 5.0 -1 90
- 0.968 1 2 ping 64 ------- 0 1.0 2.0 -1 91
- 0.968 2 3 ping 64 ------- 0 2.0 3.0 -1 92
- 0.968 3 4 ping 64 ------- 0 3.0 4.0 -1 93
- 0.968 4 5 ping 64 ------- 0 4.0 5.0 -1 94
- 0.968 5 0 ping 64 ------- 0 5.0 0.0 -1 95
r 0.978 0 5 ping 64 ------- 0 0.0 5.0 -1 84
+ 0.978 5 0 ping 64 ------- 0 5.0 0.0 -1 384
r 0.978 1 2 ping 64 ------- 0 1.0 2.0 -1 85
+ 0.978 2 3 ping 64 ------- 0 2.0 3.0 -1 385
r 0.978 2 3 ping 64 ------- 0 2.0 3.0 -1 86
+ 0.978 3 4 ping 64 ------- 0 3.0 4.0 -1 386
r 0.978 3 4 ping 64 ------- 0 3.0 4.0 -1 87
+ 0.978 4 5 ping 64 ------- 0 4.0 5.0 -1 387
r 0.978 4 5 ping 64 ------- 0 4.0 5.0 -1 88
+ 0.978 5 0 ping 64 ------- 0 5.0 0.0 -1 388
d 0.978 5 0 ping 64 ------- 0 5.0 0.0 -1 388
r 0.978 5 0 ping 64 ------- 0 5.0 0.0 -1 89
+ 0.978 0 5 ping 64 ------- 0 0.0 5.0 -1 389
