V -t * -v 1.0a5 -a 0
A -t * -n 1 -p 0 -o 0x7fffffff -c 30 -a 1
A -t * -h 1 -m 1073741823 -s 0
n -t * -a 0 -s 0 -S UP -v circle -c black -i black
n -t * -a 1 -s 1 -S UP -v circle -c black -i black
n -t * -a 2 -s 2 -S UP -v circle -c black -i black
n -t * -a 3 -s 3 -S UP -v circle -c black -i black
X -t * -n 4 -r 10Mb -D 10ms -o left
L -t * -s 4 -d 0 -o up
L -t * -s 4 -d 1 -o down
L -t * -s 4 -d 2 -o up
L -t * -s 4 -d 3 -o down
h -t 0.1 -s 0 -d 4 -p tcp -e 40 -c 0 -i 0 -a 0 -x {0.0 3.0 0 ------- null}
+ -t 0.11 -s 0 -d 4 -p tcp -e 40 -c 0 -i 0 -a 0 -x {0.0 3.0 0 ------- null}
- -t 0.11 -s 0 -d 4 -p tcp -e 40 -c 0 -i 0 -a 0 -x {0.0 3.0 0 ------- null}
h -t 0.11 -s 0 -d 4 -p tcp -e 40 -c 0 -i 0 -a 0 -x {0.0 3.0 -1 ------- null}
r -t 0.1200552 -s 4 -d 3 -p tcp -e 40 -c 0 -i 0 -a 0 -x {0.0 3.0 0 ------- null}
h -t 0.1200552 -s 3 -d 4 -p ack -e 40 -c 0 -i 1 -a 0 -x {3.0 0.0 0 ------- null}
+ -t 0.1300552 -s 3 -d 4 -p ack -e 40 -c 0 -i 1 -a 0 -x {3.0 0.0 0 ------- null}
- -t 0.1300552 -s 3 -d 4 -p ack -e 40 -c 0 -i 1 -a 0 -x {3.0 0.0 0 ------- null}
h -t 0.1300552 -s 3 -d 4 -p ack -e 40 -c 0 -i 1 -a 0 -x {3.0 0.0 -1 ------- null}
r -t 0.1401104 -s 4 -d 0 -p ack -e 40 -c 0 -i 1 -a 0 -x {3.0 0.0 0 ------- null}
h -t 0.1401104 -s 0 -d 4 -p tcp -e 1040 -c 0 -i 2 -a 0 -x {0.0 3.0 1 ------- null}
h -t 0.1401104 -s 0 -d 4 -p tcp -e 1040 -c 0 -i 3 -a 0 -x {0.0 3.0 2 ------- null}
+ -t 0.1501104 -s 0 -d 4 -p tcp -e 1040 -c 0 -i 2 -a 0 -x {0.0 3.0 1 ------- null}
- -t 0.1501104 -s 0 -d 4 -p tcp -e 1040 -c 0 -i 2 -a 0 -x {0.0 3.0 1 ------- null}
h -t 0.1501104 -s 0 -d 4 -p tcp -e 1040 -c 0 -i 2 -a 0 -x {0.0 3.0 -1 ------- null}
+ -t 0.1501104 -s 0 -d 4 -p tcp -e 1040 -c 0 -i 3 -a 0 -x {0.0 3.0 2 ------- null}
- -t 0.1509632 -s 0 -d 4 -p tcp -e 1040 -c 0 -i 3 -a 0 -x {0.0 3.0 2 ------- null}
h -t 0.1509632 -s 0 -d 4 -p tcp -e 1040 -c 0 -i 3 -a 0 -x {0.0 3.0 -1 ------- null}
r -t 0.1609576 -s 4 -d 3 -p tcp -e 1040 -c 0 -i 2 -a 0 -x {0.0 3.0 1 ------- null}
h -t 0.1609576 -s 3 -d 4 -p ack -e 40 -c 0 -i 4 -a 0 -x {3.0 0.0 1 ------- null}
r -t 0.1618104 -s 4 -d 3 -p tcp -e 1040 -c 0 -i 3 -a 0 -x {0.0 3.0 2 ------- null}
h -t 0.1618104 -s 3 -d 4 -p ack -e 40 -c 0 -i 5 -a 0 -x {3.0 0.0 2 ------- null}
+ -t 0.1709576 -s 3 -d 4 -p ack -e 40 -c 0 -i 4 -a 0 -x {3.0 0.0 1 ------- null}
- -t 0.1709576 -s 3 -d 4 -p ack -e 40 -c 0 -i 4 -a 0 -x {3.0 0.0 1 ------- null}
h -t 0.1709576 -s 3 -d 4 -p ack -e 40 -c 0 -i 4 -a 0 -x {3.0 0.0 -1 ------- null}
+ -t 0.1718104 -s 3 -d 4 -p ack -e 40 -c 0 -i 5 -a 0 -x {3.0 0.0 2 ------- null}
- -t 0.1718104 -s 3 -d 4 -p ack -e 40 -c 0 -i 5 -a 0 -x {3.0 0.0 2 ------- null}
h -t 0.1718104 -s 3 -d 4 -p ack -e 40 -c 0 -i 5 -a 0 -x {3.0 0.0 -1 ------- null}
r -t 0.1810128 -s 4 -d 0 -p ack -e 40 -c 0 -i 4 -a 0 -x {3.0 0.0 1 ------- null}
h -t 0.1810128 -s 0 -d 4 -p tcp -e 1040 -c 0 -i 6 -a 0 -x {0.0 3.0 3 ------- null}
h -t 0.1810128 -s 0 -d 4 -p tcp -e 1040 -c 0 -i 7 -a 0 -x {0.0 3.0 4 ------- null}
r -t 0.1818656 -s 4 -d 0 -p ack -e 40 -c 0 -i 5 -a 0 -x {3.0 0.0 2 ------- null}
h -t 0.1818656 -s 0 -d 4 -p tcp -e 1040 -c 0 -i 8 -a 0 -x {0.0 3.0 5 ------- null}
h -t 0.1818656 -s 0 -d 4 -p tcp -e 1040 -c 0 -i 9 -a 0 -x {0.0 3.0 6 ------- null}
+ -t 0.1910128 -s 0 -d 4 -p tcp -e 1040 -c 0 -i 6 -a 0 -x {0.0 3.0 3 ------- null}
- -t 0.1910128 -s 0 -d 4 -p tcp -e 1040 -c 0 -i 6 -a 0 -x {0.0 3.0 3 ------- null}
h -t 0.1910128 -s 0 -d 4 -p tcp -e 1040 -c 0 -i 6 -a 0 -x {0.0 3.0 -1 ------- null}
+ -t 0.1910128 -s 0 -d 4 -p tcp -e 1040 -c 0 -i 7 -a 0 -x {0.0 3.0 4 ------- null}
+ -t 0.1918656 -s 0 -d 4 -p tcp -e 1040 -c 0 -i 8 -a 0 -x {0.0 3.0 5 ------- null}
+ -t 0.1918656 -s 0 -d 4 -p tcp -e 1040 -c 0 -i 9 -a 0 -x {0.0 3.0 6 ------- null}
- -t 0.1918656 -s 0 -d 4 -p tcp -e 1040 -c 0 -i 7 -a 0 -x {0.0 3.0 4 ------- null}
h -t 0.1918656 -s 0 -d 4 -p tcp -e 1040 -c 0 -i 7 -a 0 -x {0.0 3.0 -1 ------- null}
- -t 0.1927184 -s 0 -d 4 -p tcp -e 1040 -c 0 -i 8 -a 0 -x {0.0 3.0 5 ------- null}
h -t 0.1927184 -s 0 -d 4 -p tcp -e 1040 -c 0 -i 8 -a 0 -x {0.0 3.0 -1 ------- null}
- -t 0.1935712 -s 0 -d 4 -p tcp -e 1040 -c 0 -i 9 -a 0 -x {0.0 3.0 6 ------- null}
h -t 0.1935712 -s 0 -d 4 -p tcp -e 1040 -c 0 -i 9 -a 0 -x {0.0 3.0 -1 ------- null}
h -t 0.2 -s 2 -d 4 -p tcp -e 40 -c 0 -i 10 -a 0 -x {2.0 1.0 0 ------- null}
r -t 0.20186 -s 4 -d 3 -p tcp -e 1040 -c 0 -i 6 -a 0 -x {0.0 3.0 3 ------- null}
h -t 0.20186 -s 3 -d 4 -p ack -e 40 -c 0 -i 11 -a 0 -x {3.0 0.0 3 ------- null}
r -t 0.2027128 -s 4 -d 3 -p tcp -e 1040 -c 0 -i 7 -a 0 -x {0.0 3.0 4 ------- null}
h -t 0.2027128 -s 3 -d 4 -p ack -e 40 -c 0 -i 12 -a 0 -x {3.0 0.0 4 ------- null}
r -t 0.2035656 -s 4 -d 3 -p tcp -e 1040 -c 0 -i 8 -a 0 -x {0.0 3.0 5 ------- null}
h -t 0.2035656 -s 3 -d 4 -p ack -e 40 -c 0 -i 13 -a 0 -x {3.0 0.0 5 ------- null}
r -t 0.2044184 -s 4 -d 3 -p tcp -e 1040 -c 0 -i 9 -a 0 -x {0.0 3.0 6 ------- null}
h -t 0.2044184 -s 3 -d 4 -p ack -e 40 -c 0 -i 14 -a 0 -x {3.0 0.0 6 ------- null}
+ -t 0.21 -s 2 -d 4 -p tcp -e 40 -c 0 -i 10 -a 0 -x {2.0 1.0 0 ------- null}
- -t 0.21 -s 2 -d 4 -p tcp -e 40 -c 0 -i 10 -a 0 -x {2.0 1.0 0 ------- null}
h -t 0.21 -s 2 -d 4 -p tcp -e 40 -c 0 -i 10 -a 0 -x {2.0 1.0 -1 ------- null}
+ -t 0.21186 -s 3 -d 4 -p ack -e 40 -c 0 -i 11 -a 0 -x {3.0 0.0 3 ------- null}
- -t 0.21186 -s 3 -d 4 -p ack -e 40 -c 0 -i 11 -a 0 -x {3.0 0.0 3 ------- null}
h -t 0.21186 -s 3 -d 4 -p ack -e 40 -c 0 -i 11 -a 0 -x {3.0 0.0 -1 ------- null}
+ -t 0.2127128 -s 3 -d 4 -p ack -e 40 -c 0 -i 12 -a 0 -x {3.0 0.0 4 ------- null}
- -t 0.2127128 -s 3 -d 4 -p ack -e 40 -c 0 -i 12 -a 0 -x {3.0 0.0 4 ------- null}
h -t 0.2127128 -s 3 -d 4 -p ack -e 40 -c 0 -i 12 -a 0 -x {3.0 0.0 -1 ------- null}
+ -t 0.2135656 -s 3 -d 4 -p ack -e 40 -c 0 -i 13 -a 0 -x {3.0 0.0 5 ------- null}
- -t 0.2135656 -s 3 -d 4 -p ack -e 40 -c 0 -i 13 -a 0 -x {3.0 0.0 5 ------- null}
h -t 0.2135656 -s 3 -d 4 -p ack -e 40 -c 0 -i 13 -a 0 -x {3.0 0.0 -1 ------- null}
+ -t 0.2144184 -s 3 -d 4 -p ack -e 40 -c 0 -i 14 -a 0 -x {3.0 0.0 6 ------- null}
- -t 0.2144184 -s 3 -d 4 -p ack -e 40 -c 0 -i 14 -a 0 -x {3.0 0.0 6 ------- null}
h -t 0.2144184 -s 3 -d 4 -p ack -e 40 -c 0 -i 14 -a 0 -x {3.0 0.0 -1 ------- null}
r -t 0.2200552 -s 4 -d 1 -p tcp -e 40 -c 0 -i 10 -a 0 -x {2.0 1.0 0 ------- null}
h -t 0.2200552 -s 1 -d 4 -p ack -e 40 -c 0 -i 15 -a 0 -x {1.0 2.0 0 ------- null}
r -t 0.2219152 -s 4 -d 0 -p ack -e 40 -c 0 -i 11 -a 0 -x {3.0 0.0 3 ------- null}
h -t 0.2219152 -s 0 -d 4 -p tcp -e 1040 -c 0 -i 16 -a 0 -x {0.0 3.0 7 ------- null}
h -t 0.2219152 -s 0 -d 4 -p tcp -e 1040 -c 0 -i 17 -a 0 -x {0.0 3.0 8 ------- null}
r -t 0.222768 -s 4 -d 0 -p ack -e 40 -c 0 -i 12 -a 0 -x {3.0 0.0 4 ------- null}
h -t 0.222768 -s 0 -d 4 -p tcp -e 1040 -c 0 -i 18 -a 0 -x {0.0 3.0 9 ------- null}
h -t 0.222768 -s 0 -d 4 -p tcp -e 1040 -c 0 -i 19 -a 0 -x {0.0 3.0 10 ------- null}
r -t 0.2236208 -s 4 -d 0 -p ack -e 40 -c 0 -i 13 -a 0 -x {3.0 0.0 5 ------- null}
h -t 0.2236208 -s 0 -d 4 -p tcp -e 1040 -c 0 -i 20 -a 0 -x {0.0 3.0 11 ------- null}
h -t 0.2236208 -s 0 -d 4 -p tcp -e 1040 -c 0 -i 21 -a 0 -x {0.0 3.0 12 ------- null}
r -t 0.2244736 -s 4 -d 0 -p ack -e 40 -c 0 -i 14 -a 0 -x {3.0 0.0 6 ------- null}
h -t 0.2244736 -s 0 -d 4 -p tcp -e 1040 -c 0 -i 22 -a 0 -x {0.0 3.0 13 ------- null}
h -t 0.2244736 -s 0 -d 4 -p tcp -e 1040 -c 0 -i 23 -a 0 -x {0.0 3.0 14 ------- null}
+ -t 0.2300552 -s 1 -d 4 -p ack -e 40 -c 0 -i 15 -a 0 -x {1.0 2.0 0 ------- null}
- -t 0.2300552 -s 1 -d 4 -p ack -e 40 -c 0 -i 15 -a 0 -x {1.0 2.0 0 ------- null}
h -t 0.2300552 -s 1 -d 4 -p ack -e 40 -c 0 -i 15 -a 0 -x {1.0 2.0 -1 ------- null}
+ -t 0.2319152 -s 0 -d 4 -p tcp -e 1040 -c 0 -i 16 -a 0 -x {0.0 3.0 7 ------- null}
- -t 0.2319152 -s 0 -d 4 -p tcp -e 1040 -c 0 -i 16 -a 0 -x {0.0 3.0 7 ------- null}
h -t 0.2319152 -s 0 -d 4 -p tcp -e 1040 -c 0 -i 16 -a 0 -x {0.0 3.0 -1 ------- null}
+ -t 0.2319152 -s 0 -d 4 -p tcp -e 1040 -c 0 -i 17 -a 0 -x {0.0 3.0 8 ------- null}
+ -t 0.232768 -s 0 -d 4 -p tcp -e 1040 -c 0 -i 18 -a 0 -x {0.0 3.0 9 ------- null}
+ -t 0.232768 -s 0 -d 4 -p tcp -e 1040 -c 0 -i 19 -a 0 -x {0.0 3.0 10 ------- null}
- -t 0.232768 -s 0 -d 4 -p tcp -e 1040 -c 0 -i 17 -a 0 -x {0.0 3.0 8 ------- null}
h -t 0.232768 -s 0 -d 4 -p tcp -e 1040 -c 0 -i 17 -a 0 -x {0.0 3.0 -1 ------- null}
+ -t 0.2336208 -s 0 -d 4 -p tcp -e 1040 -c 0 -i 20 -a 0 -x {0.0 3.0 11 ------- null}
+ -t 0.2336208 -s 0 -d 4 -p tcp -e 1040 -c 0 -i 21 -a 0 -x {0.0 3.0 12 ------- null}
- -t 0.2336208 -s 0 -d 4 -p tcp -e 1040 -c 0 -i 18 -a 0 -x {0.0 3.0 9 ------- null}
h -t 0.2336208 -s 0 -d 4 -p tcp -e 1040 -c 0 -i 18 -a 0 -x {0.0 3.0 -1 ------- null}
+ -t 0.2344736 -s 0 -d 4 -p tcp -e 1040 -c 0 -i 22 -a 0 -x {0.0 3.0 13 ------- null}
+ -t 0.2344736 -s 0 -d 4 -p tcp -e 1040 -c 0 -i 23 -a 0 -x {0.0 3.0 14 ------- null}
- -t 0.2344736 -s 0 -d 4 -p tcp -e 1040 -c 0 -i 19 -a 0 -x {0.0 3.0 10 ------- null}
h -t 0.2344736 -s 0 -d 4 -p tcp -e 1040 -c 0 -i 19 -a 0 -x {0.0 3.0 -1 ------- null}
- -t 0.2353264 -s 0 -d 4 -p tcp -e 1040 -c 0 -i 20 -a 0 -x {0.0 3.0 11 ------- null}
h -t 0.2353264 -s 0 -d 4 -p tcp -e 1040 -c 0 -i 20 -a 0 -x {0.0 3.0 -1 ------- null}
- -t 0.2361792 -s 0 -d 4 -p tcp -e 1040 -c 0 -i 21 -a 0 -x {0.0 3.0 12 ------- null}
h -t 0.2361792 -s 0 -d 4 -p tcp -e 1040 -c 0 -i 21 -a 0 -x {0.0 3.0 -1 ------- null}
- -t 0.237032 -s 0 -d 4 -p tcp -e 1040 -c 0 -i 22 -a 0 -x {0.0 3.0 13 ------- null}
h -t 0.237032 -s 0 -d 4 -p tcp -e 1040 -c 0 -i 22 -a 0 -x {0.0 3.0 -1 ------- null}
- -t 0.2378848 -s 0 -d 4 -p tcp -e 1040 -c 0 -i 23 -a 0 -x {0.0 3.0 14 ------- null}
h -t 0.2378848 -s 0 -d 4 -p tcp -e 1040 -c 0 -i 23 -a 0 -x {0.0 3.0 -1 ------- null}
r -t 0.2401104 -s 4 -d 2 -p ack -e 40 -c 0 -i 15 -a 0 -x {1.0 2.0 0 ------- null}
h -t 0.2401104 -s 2 -d 4 -p tcp -e 1040 -c 0 -i 24 -a 0 -x {2.0 1.0 1 ------- null}
h -t 0.2401104 -s 2 -d 4 -p tcp -e 1040 -c 0 -i 25 -a 0 -x {2.0 1.0 2 ------- null}
r -t 0.2427624 -s 4 -d 3 -p tcp -e 1040 -c 0 -i 16 -a 0 -x {0.0 3.0 7 ------- null}
h -t 0.2427624 -s 3 -d 4 -p ack -e 40 -c 0 -i 26 -a 0 -x {3.0 0.0 7 ------- null}
r -t 0.2436152 -s 4 -d 3 -p tcp -e 1040 -c 0 -i 17 -a 0 -x {0.0 3.0 8 ------- null}
h -t 0.2436152 -s 3 -d 4 -p ack -e 40 -c 0 -i 27 -a 0 -x {3.0 0.0 8 ------- null}
r -t 0.244468 -s 4 -d 3 -p tcp -e 1040 -c 0 -i 18 -a 0 -x {0.0 3.0 9 ------- null}
h -t 0.244468 -s 3 -d 4 -p ack -e 40 -c 0 -i 28 -a 0 -x {3.0 0.0 9 ------- null}
r -t 0.2453208 -s 4 -d 3 -p tcp -e 1040 -c 0 -i 19 -a 0 -x {0.0 3.0 10 ------- null}
h -t 0.2453208 -s 3 -d 4 -p ack -e 40 -c 0 -i 29 -a 0 -x {3.0 0.0 10 ------- null}
r -t 0.2461736 -s 4 -d 3 -p tcp -e 1040 -c 0 -i 20 -a 0 -x {0.0 3.0 11 ------- null}
h -t 0.2461736 -s 3 -d 4 -p ack -e 40 -c 0 -i 30 -a 0 -x {3.0 0.0 11 ------- null}
r -t 0.2470264 -s 4 -d 3 -p tcp -e 1040 -c 0 -i 21 -a 0 -x {0.0 3.0 12 ------- null}
h -t 0.2470264 -s 3 -d 4 -p ack -e 40 -c 0 -i 31 -a 0 -x {3.0 0.0 12 ------- null}
r -t 0.2478792 -s 4 -d 3 -p tcp -e 1040 -c 0 -i 22 -a 0 -x {0.0 3.0 13 ------- null}
h -t 0.2478792 -s 3 -d 4 -p ack -e 40 -c 0 -i 32 -a 0 -x {3.0 0.0 13 ------- null}
r -t 0.248732 -s 4 -d 3 -p tcp -e 1040 -c 0 -i 23 -a 0 -x {0.0 3.0 14 ------- null}
h -t 0.248732 -s 3 -d 4 -p ack -e 40 -c 0 -i 33 -a 0 -x {3.0 0.0 14 ------- null}
+ -t 0.2501104 -s 2 -d 4 -p tcp -e 1040 -c 0 -i 24 -a 0 -x {2.0 1.0 1 ------- null}
- -t 0.2501104 -s 2 -d 4 -p tcp -e 1040 -c 0 -i 24 -a 0 -x {2.0 1.0 1 ------- null}
h -t 0.2501104 -s 2 -d 4 -p tcp -e 1040 -c 0 -i 24 -a 0 -x {2.0 1.0 -1 ------- null}
+ -t 0.2501104 -s 2 -d 4 -p tcp -e 1040 -c 0 -i 25 -a 0 -x {2.0 1.0 2 ------- null}
- -t 0.2509632 -s 2 -d 4 -p tcp -e 1040 -c 0 -i 25 -a 0 -x {2.0 1.0 2 ------- null}
h -t 0.2509632 -s 2 -d 4 -p tcp -e 1040 -c 0 -i 25 -a 0 -x {2.0 1.0 -1 ------- null}
+ -t 0.2527624 -s 3 -d 4 -p ack -e 40 -c 0 -i 26 -a 0 -x {3.0 0.0 7 ------- null}
- -t 0.2527624 -s 3 -d 4 -p ack -e 40 -c 0 -i 26 -a 0 -x {3.0 0.0 7 ------- null}
h -t 0.2527624 -s 3 -d 4 -p ack -e 40 -c 0 -i 26 -a 0 -x {3.0 0.0 -1 ------- null}
+ -t 0.2536152 -s 3 -d 4 -p ack -e 40 -c 0 -i 27 -a 0 -x {3.0 0.0 8 ------- null}
- -t 0.2536152 -s 3 -d 4 -p ack -e 40 -c 0 -i 27 -a 0 -x {3.0 0.0 8 ------- null}
h -t 0.2536152 -s 3 -d 4 -p ack -e 40 -c 0 -i 27 -a 0 -x {3.0 0.0 -1 ------- null}
+ -t 0.254468 -s 3 -d 4 -p ack -e 40 -c 0 -i 28 -a 0 -x {3.0 0.0 9 ------- null}
- -t 0.254468 -s 3 -d 4 -p ack -e 40 -c 0 -i 28 -a 0 -x {3.0 0.0 9 ------- null}
h -t 0.254468 -s 3 -d 4 -p ack -e 40 -c 0 -i 28 -a 0 -x {3.0 0.0 -1 ------- null}
+ -t 0.2553208 -s 3 -d 4 -p ack -e 40 -c 0 -i 29 -a 0 -x {3.0 0.0 10 ------- null}
- -t 0.2553208 -s 3 -d 4 -p ack -e 40 -c 0 -i 29 -a 0 -x {3.0 0.0 10 ------- null}
h -t 0.2553208 -s 3 -d 4 -p ack -e 40 -c 0 -i 29 -a 0 -x {3.0 0.0 -1 ------- null}
+ -t 0.2561736 -s 3 -d 4 -p ack -e 40 -c 0 -i 30 -a 0 -x {3.0 0.0 11 ------- null}
- -t 0.2561736 -s 3 -d 4 -p ack -e 40 -c 0 -i 30 -a 0 -x {3.0 0.0 11 ------- null}
h -t 0.2561736 -s 3 -d 4 -p ack -e 40 -c 0 -i 30 -a 0 -x {3.0 0.0 -1 ------- null}
+ -t 0.2570264 -s 3 -d 4 -p ack -e 40 -c 0 -i 31 -a 0 -x {3.0 0.0 12 ------- null}
- -t 0.2570264 -s 3 -d 4 -p ack -e 40 -c 0 -i 31 -a 0 -x {3.0 0.0 12 ------- null}
h -t 0.2570264 -s 3 -d 4 -p ack -e 40 -c 0 -i 31 -a 0 -x {3.0 0.0 -1 ------- null}
+ -t 0.2578792 -s 3 -d 4 -p ack -e 40 -c 0 -i 32 -a 0 -x {3.0 0.0 13 ------- null}
- -t 0.2578792 -s 3 -d 4 -p ack -e 40 -c 0 -i 32 -a 0 -x {3.0 0.0 13 ------- null}
h -t 0.2578792 -s 3 -d 4 -p ack -e 40 -c 0 -i 32 -a 0 -x {3.0 0.0 -1 ------- null}
+ -t 0.258732 -s 3 -d 4 -p ack -e 40 -c 0 -i 33 -a 0 -x {3.0 0.0 14 ------- null}
- -t 0.258732 -s 3 -d 4 -p ack -e 40 -c 0 -i 33 -a 0 -x {3.0 0.0 14 ------- null}
h -t 0.258732 -s 3 -d 4 -p ack -e 40 -c 0 -i 33 -a 0 -x {3.0 0.0 -1 ------- null}
r -t 0.2609576 -s 4 -d 1 -p tcp -e 1040 -c 0 -i 24 -a 0 -x {2.0 1.0 1 ------- null}
h -t 0.2609576 -s 1 -d 4 -p ack -e 40 -c 0 -i 34 -a 0 -x {1.0 2.0 1 ------- null}
r -t 0.2618104 -s 4 -d 1 -p tcp -e 1040 -c 0 -i 25 -a 0 -x {2.0 1.0 2 ------- null}
h -t 0.2618104 -s 1 -d 4 -p ack -e 40 -c 0 -i 35 -a 0 -x {1.0 2.0 2 ------- null}
r -t 0.2628176 -s 4 -d 0 -p ack -e 40 -c 0 -i 26 -a 0 -x {3.0 0.0 7 ------- null}
h -t 0.2628176 -s 0 -d 4 -p tcp -e 1040 -c 0 -i 36 -a 0 -x {0.0 3.0 15 ------- null}
h -t 0.2628176 -s 0 -d 4 -p tcp -e 1040 -c 0 -i 37 -a 0 -x {0.0 3.0 16 ------- null}
r -t 0.2636704 -s 4 -d 0 -p ack -e 40 -c 0 -i 27 -a 0 -x {3.0 0.0 8 ------- null}
h -t 0.2636704 -s 0 -d 4 -p tcp -e 1040 -c 0 -i 38 -a 0 -x {0.0 3.0 17 ------- null}
h -t 0.2636704 -s 0 -d 4 -p tcp -e 1040 -c 0 -i 39 -a 0 -x {0.0 3.0 18 ------- null}
r -t 0.2645232 -s 4 -d 0 -p ack -e 40 -c 0 -i 28 -a 0 -x {3.0 0.0 9 ------- null}
h -t 0.2645232 -s 0 -d 4 -p tcp -e 1040 -c 0 -i 40 -a 0 -x {0.0 3.0 19 ------- null}
r -t 0.265376 -s 4 -d 0 -p ack -e 40 -c 0 -i 29 -a 0 -x {3.0 0.0 10 ------- null}
h -t 0.265376 -s 0 -d 4 -p tcp -e 1040 -c 0 -i 41 -a 0 -x {0.0 3.0 20 ------- null}
r -t 0.2662288 -s 4 -d 0 -p ack -e 40 -c 0 -i 30 -a 0 -x {3.0 0.0 11 ------- null}
h -t 0.2662288 -s 0 -d 4 -p tcp -e 1040 -c 0 -i 42 -a 0 -x {0.0 3.0 21 ------- null}
r -t 0.2670816 -s 4 -d 0 -p ack -e 40 -c 0 -i 31 -a 0 -x {3.0 0.0 12 ------- null}
h -t 0.2670816 -s 0 -d 4 -p tcp -e 1040 -c 0 -i 43 -a 0 -x {0.0 3.0 22 ------- null}
r -t 0.2679344 -s 4 -d 0 -p ack -e 40 -c 0 -i 32 -a 0 -x {3.0 0.0 13 ------- null}
h -t 0.2679344 -s 0 -d 4 -p tcp -e 1040 -c 0 -i 44 -a 0 -x {0.0 3.0 23 ------- null}
r -t 0.2687872 -s 4 -d 0 -p ack -e 40 -c 0 -i 33 -a 0 -x {3.0 0.0 14 ------- null}
h -t 0.2687872 -s 0 -d 4 -p tcp -e 1040 -c 0 -i 45 -a 0 -x {0.0 3.0 24 ------- null}
+ -t 0.2709576 -s 1 -d 4 -p ack -e 40 -c 0 -i 34 -a 0 -x {1.0 2.0 1 ------- null}
- -t 0.2709576 -s 1 -d 4 -p ack -e 40 -c 0 -i 34 -a 0 -x {1.0 2.0 1 ------- null}
h -t 0.2709576 -s 1 -d 4 -p ack -e 40 -c 0 -i 34 -a 0 -x {1.0 2.0 -1 ------- null}
+ -t 0.2718104 -s 1 -d 4 -p ack -e 40 -c 0 -i 35 -a 0 -x {1.0 2.0 2 ------- null}
- -t 0.2718104 -s 1 -d 4 -p ack -e 40 -c 0 -i 35 -a 0 -x {1.0 2.0 2 ------- null}
h -t 0.2718104 -s 1 -d 4 -p ack -e 40 -c 0 -i 35 -a 0 -x {1.0 2.0 -1 ------- null}
+ -t 0.2728176 -s 0 -d 4 -p tcp -e 1040 -c 0 -i 36 -a 0 -x {0.0 3.0 15 ------- null}
- -t 0.2728176 -s 0 -d 4 -p tcp -e 1040 -c 0 -i 36 -a 0 -x {0.0 3.0 15 ------- null}
h -t 0.2728176 -s 0 -d 4 -p tcp -e 1040 -c 0 -i 36 -a 0 -x {0.0 3.0 -1 ------- null}
+ -t 0.2728176 -s 0 -d 4 -p tcp -e 1040 -c 0 -i 37 -a 0 -x {0.0 3.0 16 ------- null}
+ -t 0.2736704 -s 0 -d 4 -p tcp -e 1040 -c 0 -i 38 -a 0 -x {0.0 3.0 17 ------- null}
+ -t 0.2736704 -s 0 -d 4 -p tcp -e 1040 -c 0 -i 39 -a 0 -x {0.0 3.0 18 ------- null}
- -t 0.2736704 -s 0 -d 4 -p tcp -e 1040 -c 0 -i 37 -a 0 -x {0.0 3.0 16 ------- null}
h -t 0.2736704 -s 0 -d 4 -p tcp -e 1040 -c 0 -i 37 -a 0 -x {0.0 3.0 -1 ------- null}
+ -t 0.2745232 -s 0 -d 4 -p tcp -e 1040 -c 0 -i 40 -a 0 -x {0.0 3.0 19 ------- null}
- -t 0.2745232 -s 0 -d 4 -p tcp -e 1040 -c 0 -i 38 -a 0 -x {0.0 3.0 17 ------- null}
h -t 0.2745232 -s 0 -d 4 -p tcp -e 1040 -c 0 -i 38 -a 0 -x {0.0 3.0 -1 ------- null}
+ -t 0.275376 -s 0 -d 4 -p tcp -e 1040 -c 0 -i 41 -a 0 -x {0.0 3.0 20 ------- null}
- -t 0.275376 -s 0 -d 4 -p tcp -e 1040 -c 0 -i 39 -a 0 -x {0.0 3.0 18 ------- null}
h -t 0.275376 -s 0 -d 4 -p tcp -e 1040 -c 0 -i 39 -a 0 -x {0.0 3.0 -1 ------- null}
+ -t 0.2762288 -s 0 -d 4 -p tcp -e 1040 -c 0 -i 42 -a 0 -x {0.0 3.0 21 ------- null}
- -t 0.2762288 -s 0 -d 4 -p tcp -e 1040 -c 0 -i 40 -a 0 -x {0.0 3.0 19 ------- null}
h -t 0.2762288 -s 0 -d 4 -p tcp -e 1040 -c 0 -i 40 -a 0 -x {0.0 3.0 -1 ------- null}
+ -t 0.2770816 -s 0 -d 4 -p tcp -e 1040 -c 0 -i 43 -a 0 -x {0.0 3.0 22 ------- null}
- -t 0.2770816 -s 0 -d 4 -p tcp -e 1040 -c 0 -i 41 -a 0 -x {0.0 3.0 20 ------- null}
h -t 0.2770816 -s 0 -d 4 -p tcp -e 1040 -c 0 -i 41 -a 0 -x {0.0 3.0 -1 ------- null}
+ -t 0.2779344 -s 0 -d 4 -p tcp -e 1040 -c 0 -i 44 -a 0 -x {0.0 3.0 23 ------- null}
- -t 0.2779344 -s 0 -d 4 -p tcp -e 1040 -c 0 -i 42 -a 0 -x {0.0 3.0 21 ------- null}
h -t 0.2779344 -s 0 -d 4 -p tcp -e 1040 -c 0 -i 42 -a 0 -x {0.0 3.0 -1 ------- null}
+ -t 0.2787872 -s 0 -d 4 -p tcp -e 1040 -c 0 -i 45 -a 0 -x {0.0 3.0 24 ------- null}
- -t 0.2787872 -s 0 -d 4 -p tcp -e 1040 -c 0 -i 43 -a 0 -x {0.0 3.0 22 ------- null}
h -t 0.2787872 -s 0 -d 4 -p tcp -e 1040 -c 0 -i 43 -a 0 -x {0.0 3.0 -1 ------- null}
- -t 0.27964 -s 0 -d 4 -p tcp -e 1040 -c 0 -i 44 -a 0 -x {0.0 3.0 23 ------- null}
h -t 0.27964 -s 0 -d 4 -p tcp -e 1040 -c 0 -i 44 -a 0 -x {0.0 3.0 -1 ------- null}
- -t 0.2804928 -s 0 -d 4 -p tcp -e 1040 -c 0 -i 45 -a 0 -x {0.0 3.0 24 ------- null}
h -t 0.2804928 -s 0 -d 4 -p tcp -e 1040 -c 0 -i 45 -a 0 -x {0.0 3.0 -1 ------- null}
r -t 0.2810128 -s 4 -d 2 -p ack -e 40 -c 0 -i 34 -a 0 -x {1.0 2.0 1 ------- null}
h -t 0.2810128 -s 2 -d 4 -p tcp -e 1040 -c 0 -i 46 -a 0 -x {2.0 1.0 3 ------- null}
h -t 0.2810128 -s 2 -d 4 -p tcp -e 1040 -c 0 -i 47 -a 0 -x {2.0 1.0 4 ------- null}
r -t 0.2818656 -s 4 -d 2 -p ack -e 40 -c 0 -i 35 -a 0 -x {1.0 2.0 2 ------- null}
h -t 0.2818656 -s 2 -d 4 -p tcp -e 1040 -c 0 -i 48 -a 0 -x {2.0 1.0 5 ------- null}
h -t 0.2818656 -s 2 -d 4 -p tcp -e 1040 -c 0 -i 49 -a 0 -x {2.0 1.0 6 ------- null}
r -t 0.2836648 -s 4 -d 3 -p tcp -e 1040 -c 0 -i 36 -a 0 -x {0.0 3.0 15 ------- null}
h -t 0.2836648 -s 3 -d 4 -p ack -e 40 -c 0 -i 50 -a 0 -x {3.0 0.0 15 ------- null}
r -t 0.2845176 -s 4 -d 3 -p tcp -e 1040 -c 0 -i 37 -a 0 -x {0.0 3.0 16 ------- null}
h -t 0.2845176 -s 3 -d 4 -p ack -e 40 -c 0 -i 51 -a 0 -x {3.0 0.0 16 ------- null}
r -t 0.2853704 -s 4 -d 3 -p tcp -e 1040 -c 0 -i 38 -a 0 -x {0.0 3.0 17 ------- null}
h -t 0.2853704 -s 3 -d 4 -p ack -e 40 -c 0 -i 52 -a 0 -x {3.0 0.0 17 ------- null}
r -t 0.2862232 -s 4 -d 3 -p tcp -e 1040 -c 0 -i 39 -a 0 -x {0.0 3.0 18 ------- null}
h -t 0.2862232 -s 3 -d 4 -p ack -e 40 -c 0 -i 53 -a 0 -x {3.0 0.0 18 ------- null}
r -t 0.287076 -s 4 -d 3 -p tcp -e 1040 -c 0 -i 40 -a 0 -x {0.0 3.0 19 ------- null}
h -t 0.287076 -s 3 -d 4 -p ack -e 40 -c 0 -i 54 -a 0 -x {3.0 0.0 19 ------- null}
r -t 0.2879288 -s 4 -d 3 -p tcp -e 1040 -c 0 -i 41 -a 0 -x {0.0 3.0 20 ------- null}
h -t 0.2879288 -s 3 -d 4 -p ack -e 40 -c 0 -i 55 -a 0 -x {3.0 0.0 20 ------- null}
r -t 0.2887816 -s 4 -d 3 -p tcp -e 1040 -c 0 -i 42 -a 0 -x {0.0 3.0 21 ------- null}
h -t 0.2887816 -s 3 -d 4 -p ack -e 40 -c 0 -i 56 -a 0 -x {3.0 0.0 21 ------- null}
r -t 0.2896344 -s 4 -d 3 -p tcp -e 1040 -c 0 -i 43 -a 0 -x {0.0 3.0 22 ------- null}
h -t 0.2896344 -s 3 -d 4 -p ack -e 40 -c 0 -i 57 -a 0 -x {3.0 0.0 22 ------- null}
r -t 0.2904872 -s 4 -d 3 -p tcp -e 1040 -c 0 -i 44 -a 0 -x {0.0 3.0 23 ------- null}
h -t 0.2904872 -s 3 -d 4 -p ack -e 40 -c 0 -i 58 -a 0 -x {3.0 0.0 23 ------- null}
+ -t 0.2910128 -s 2 -d 4 -p tcp -e 1040 -c 0 -i 46 -a 0 -x {2.0 1.0 3 ------- null}
- -t 0.2910128 -s 2 -d 4 -p tcp -e 1040 -c 0 -i 46 -a 0 -x {2.0 1.0 3 ------- null}
h -t 0.2910128 -s 2 -d 4 -p tcp -e 1040 -c 0 -i 46 -a 0 -x {2.0 1.0 -1 ------- null}
+ -t 0.2910128 -s 2 -d 4 -p tcp -e 1040 -c 0 -i 47 -a 0 -x {2.0 1.0 4 ------- null}
r -t 0.29134 -s 4 -d 3 -p tcp -e 1040 -c 0 -i 45 -a 0 -x {0.0 3.0 24 ------- null}
h -t 0.29134 -s 3 -d 4 -p ack -e 40 -c 0 -i 59 -a 0 -x {3.0 0.0 24 ------- null}
+ -t 0.2918656 -s 2 -d 4 -p tcp -e 1040 -c 0 -i 48 -a 0 -x {2.0 1.0 5 ------- null}
+ -t 0.2918656 -s 2 -d 4 -p tcp -e 1040 -c 0 -i 49 -a 0 -x {2.0 1.0 6 ------- null}
- -t 0.2918656 -s 2 -d 4 -p tcp -e 1040 -c 0 -i 47 -a 0 -x {2.0 1.0 4 ------- null}
h -t 0.2918656 -s 2 -d 4 -p tcp -e 1040 -c 0 -i 47 -a 0 -x {2.0 1.0 -1 ------- null}
- -t 0.2927184 -s 2 -d 4 -p tcp -e 1040 -c 0 -i 48 -a 0 -x {2.0 1.0 5 ------- null}
h -t 0.2927184 -s 2 -d 4 -p tcp -e 1040 -c 0 -i 48 -a 0 -x {2.0 1.0 -1 ------- null}
- -t 0.2935712 -s 2 -d 4 -p tcp -e 1040 -c 0 -i 49 -a 0 -x {2.0 1.0 6 ------- null}
h -t 0.2935712 -s 2 -d 4 -p tcp -e 1040 -c 0 -i 49 -a 0 -x {2.0 1.0 -1 ------- null}
+ -t 0.2936648 -s 3 -d 4 -p ack -e 40 -c 0 -i 50 -a 0 -x {3.0 0.0 15 ------- null}
- -t 0.2936648 -s 3 -d 4 -p ack -e 40 -c 0 -i 50 -a 0 -x {3.0 0.0 15 ------- null}
h -t 0.2936648 -s 3 -d 4 -p ack -e 40 -c 0 -i 50 -a 0 -x {3.0 0.0 -1 ------- null}
+ -t 0.2945176 -s 3 -d 4 -p ack -e 40 -c 0 -i 51 -a 0 -x {3.0 0.0 16 ------- null}
- -t 0.2945176 -s 3 -d 4 -p ack -e 40 -c 0 -i 51 -a 0 -x {3.0 0.0 16 ------- null}
h -t 0.2945176 -s 3 -d 4 -p ack -e 40 -c 0 -i 51 -a 0 -x {3.0 0.0 -1 ------- null}
+ -t 0.2953704 -s 3 -d 4 -p ack -e 40 -c 0 -i 52 -a 0 -x {3.0 0.0 17 ------- null}
- -t 0.2953704 -s 3 -d 4 -p ack -e 40 -c 0 -i 52 -a 0 -x {3.0 0.0 17 ------- null}
h -t 0.2953704 -s 3 -d 4 -p ack -e 40 -c 0 -i 52 -a 0 -x {3.0 0.0 -1 ------- null}
+ -t 0.2962232 -s 3 -d 4 -p ack -e 40 -c 0 -i 53 -a 0 -x {3.0 0.0 18 ------- null}
- -t 0.2962232 -s 3 -d 4 -p ack -e 40 -c 0 -i 53 -a 0 -x {3.0 0.0 18 ------- null}
h -t 0.2962232 -s 3 -d 4 -p ack -e 40 -c 0 -i 53 -a 0 -x {3.0 0.0 -1 ------- null}
+ -t 0.297076 -s 3 -d 4 -p ack -e 40 -c 0 -i 54 -a 0 -x {3.0 0.0 19 ------- null}
- -t 0.297076 -s 3 -d 4 -p ack -e 40 -c 0 -i 54 -a 0 -x {3.0 0.0 19 ------- null}
h -t 0.297076 -s 3 -d 4 -p ack -e 40 -c 0 -i 54 -a 0 -x {3.0 0.0 -1 ------- null}
+ -t 0.2979288 -s 3 -d 4 -p ack -e 40 -c 0 -i 55 -a 0 -x {3.0 0.0 20 ------- null}
- -t 0.2979288 -s 3 -d 4 -p ack -e 40 -c 0 -i 55 -a 0 -x {3.0 0.0 20 ------- null}
h -t 0.2979288 -s 3 -d 4 -p ack -e 40 -c 0 -i 55 -a 0 -x {3.0 0.0 -1 ------- null}
+ -t 0.2987816 -s 3 -d 4 -p ack -e 40 -c 0 -i 56 -a 0 -x {3.0 0.0 21 ------- null}
- -t 0.2987816 -s 3 -d 4 -p ack -e 40 -c 0 -i 56 -a 0 -x {3.0 0.0 21 ------- null}
h -t 0.2987816 -s 3 -d 4 -p ack -e 40 -c 0 -i 56 -a 0 -x {3.0 0.0 -1 ------- null}
+ -t 0.2996344 -s 3 -d 4 -p ack -e 40 -c 0 -i 57 -a 0 -x {3.0 0.0 22 ------- null}
- -t 0.2996344 -s 3 -d 4 -p ack -e 40 -c 0 -i 57 -a 0 -x {3.0 0.0 22 ------- null}
h -t 0.2996344 -s 3 -d 4 -p ack -e 40 -c 0 -i 57 -a 0 -x {3.0 0.0 -1 ------- null}
+ -t 0.3004872 -s 3 -d 4 -p ack -e 40 -c 0 -i 58 -a 0 -x {3.0 0.0 23 ------- null}
- -t 0.3004872 -s 3 -d 4 -p ack -e 40 -c 0 -i 58 -a 0 -x {3.0 0.0 23 ------- null}
h -t 0.3004872 -s 3 -d 4 -p ack -e 40 -c 0 -i 58 -a 0 -x {3.0 0.0 -1 ------- null}
+ -t 0.30134 -s 3 -d 4 -p ack -e 40 -c 0 -i 59 -a 0 -x {3.0 0.0 24 ------- null}
- -t 0.30134 -s 3 -d 4 -p ack -e 40 -c 0 -i 59 -a 0 -x {3.0 0.0 24 ------- null}
h -t 0.30134 -s 3 -d 4 -p ack -e 40 -c 0 -i 59 -a 0 -x {3.0 0.0 -1 ------- null}
r -t 0.30186 -s 4 -d 1 -p tcp -e 1040 -c 0 -i 46 -a 0 -x {2.0 1.0 3 ------- null}
h -t 0.30186 -s 1 -d 4 -p ack -e 40 -c 0 -i 60 -a 0 -x {1.0 2.0 3 ------- null}
r -t 0.3027128 -s 4 -d 1 -p tcp -e 1040 -c 0 -i 47 -a 0 -x {2.0 1.0 4 ------- null}
h -t 0.3027128 -s 1 -d 4 -p ack -e 40 -c 0 -i 61 -a 0 -x {1.0 2.0 4 ------- null}
r -t 0.3035656 -s 4 -d 1 -p tcp -e 1040 -c 0 -i 48 -a 0 -x {2.0 1.0 5 ------- null}
h -t 0.3035656 -s 1 -d 4 -p ack -e 40 -c 0 -i 62 -a 0 -x {1.0 2.0 5 ------- null}
r -t 0.3044184 -s 4 -d 1 -p tcp -e 1040 -c 0 -i 49 -a 0 -x {2.0 1.0 6 ------- null}
h -t 0.3044184 -s 1 -d 4 -p ack -e 40 -c 0 -i 63 -a 0 -x {1.0 2.0 6 ------- null}
r -t 0.3044832 -s 4 -d 0 -p ack -e 40 -c 0 -i 50 -a 0 -x {3.0 0.0 15 ------- null}
h -t 0.3044832 -s 0 -d 4 -p tcp -e 1040 -c 0 -i 64 -a 0 -x {0.0 3.0 25 ------- null}
r -t 0.3045728 -s 4 -d 0 -p ack -e 40 -c 0 -i 51 -a 0 -x {3.0 0.0 16 ------- null}
h -t 0.3045728 -s 0 -d 4 -p tcp -e 1040 -c 0 -i 65 -a 0 -x {0.0 3.0 26 ------- null}
r -t 0.3054256 -s 4 -d 0 -p ack -e 40 -c 0 -i 52 -a 0 -x {3.0 0.0 17 ------- null}
h -t 0.3054256 -s 0 -d 4 -p tcp -e 1040 -c 0 -i 66 -a 0 -x {0.0 3.0 27 ------- null}
r -t 0.3062784 -s 4 -d 0 -p ack -e 40 -c 0 -i 53 -a 0 -x {3.0 0.0 18 ------- null}
h -t 0.3062784 -s 0 -d 4 -p tcp -e 1040 -c 0 -i 67 -a 0 -x {0.0 3.0 28 ------- null}
r -t 0.3071312 -s 4 -d 0 -p ack -e 40 -c 0 -i 54 -a 0 -x {3.0 0.0 19 ------- null}
h -t 0.3071312 -s 0 -d 4 -p tcp -e 1040 -c 0 -i 68 -a 0 -x {0.0 3.0 29 ------- null}
r -t 0.307984 -s 4 -d 0 -p ack -e 40 -c 0 -i 55 -a 0 -x {3.0 0.0 20 ------- null}
h -t 0.307984 -s 0 -d 4 -p tcp -e 1040 -c 0 -i 69 -a 0 -x {0.0 3.0 30 ------- null}
r -t 0.3088368 -s 4 -d 0 -p ack -e 40 -c 0 -i 56 -a 0 -x {3.0 0.0 21 ------- null}
h -t 0.3088368 -s 0 -d 4 -p tcp -e 1040 -c 0 -i 70 -a 0 -x {0.0 3.0 31 ------- null}
r -t 0.3096896 -s 4 -d 0 -p ack -e 40 -c 0 -i 57 -a 0 -x {3.0 0.0 22 ------- null}
h -t 0.3096896 -s 0 -d 4 -p tcp -e 1040 -c 0 -i 71 -a 0 -x {0.0 3.0 32 ------- null}
r -t 0.3105424 -s 4 -d 0 -p ack -e 40 -c 0 -i 58 -a 0 -x {3.0 0.0 23 ------- null}
h -t 0.3105424 -s 0 -d 4 -p tcp -e 1040 -c 0 -i 72 -a 0 -x {0.0 3.0 33 ------- null}
r -t 0.3113952 -s 4 -d 0 -p ack -e 40 -c 0 -i 59 -a 0 -x {3.0 0.0 24 ------- null}
h -t 0.3113952 -s 0 -d 4 -p tcp -e 1040 -c 0 -i 73 -a 0 -x {0.0 3.0 34 ------- null}
+ -t 0.31186 -s 1 -d 4 -p ack -e 40 -c 0 -i 60 -a 0 -x {1.0 2.0 3 ------- null}
- -t 0.31186 -s 1 -d 4 -p ack -e 40 -c 0 -i 60 -a 0 -x {1.0 2.0 3 ------- null}
h -t 0.31186 -s 1 -d 4 -p ack -e 40 -c 0 -i 60 -a 0 -x {1.0 2.0 -1 ------- null}
+ -t 0.3127128 -s 1 -d 4 -p ack -e 40 -c 0 -i 61 -a 0 -x {1.0 2.0 4 ------- null}
- -t 0.3127128 -s 1 -d 4 -p ack -e 40 -c 0 -i 61 -a 0 -x {1.0 2.0 4 ------- null}
h -t 0.3127128 -s 1 -d 4 -p ack -e 40 -c 0 -i 61 -a 0 -x {1.0 2.0 -1 ------- null}
+ -t 0.3135656 -s 1 -d 4 -p ack -e 40 -c 0 -i 62 -a 0 -x {1.0 2.0 5 ------- null}
- -t 0.3135656 -s 1 -d 4 -p ack -e 40 -c 0 -i 62 -a 0 -x {1.0 2.0 5 ------- null}
h -t 0.3135656 -s 1 -d 4 -p ack -e 40 -c 0 -i 62 -a 0 -x {1.0 2.0 -1 ------- null}
+ -t 0.3144184 -s 1 -d 4 -p ack -e 40 -c 0 -i 63 -a 0 -x {1.0 2.0 6 ------- null}
- -t 0.3144184 -s 1 -d 4 -p ack -e 40 -c 0 -i 63 -a 0 -x {1.0 2.0 6 ------- null}
h -t 0.3144184 -s 1 -d 4 -p ack -e 40 -c 0 -i 63 -a 0 -x {1.0 2.0 -1 ------- null}
+ -t 0.3144832 -s 0 -d 4 -p tcp -e 1040 -c 0 -i 64 -a 0 -x {0.0 3.0 25 ------- null}
- -t 0.3144832 -s 0 -d 4 -p tcp -e 1040 -c 0 -i 64 -a 0 -x {0.0 3.0 25 ------- null}
h -t 0.3144832 -s 0 -d 4 -p tcp -e 1040 -c 0 -i 64 -a 0 -x {0.0 3.0 -1 ------- null}
+ -t 0.3145728 -s 0 -d 4 -p tcp -e 1040 -c 0 -i 65 -a 0 -x {0.0 3.0 26 ------- null}
- -t 0.315336 -s 0 -d 4 -p tcp -e 1040 -c 0 -i 65 -a 0 -x {0.0 3.0 26 ------- null}
h -t 0.315336 -s 0 -d 4 -p tcp -e 1040 -c 0 -i 65 -a 0 -x {0.0 3.0 -1 ------- null}
+ -t 0.3154256 -s 0 -d 4 -p tcp -e 1040 -c 0 -i 66 -a 0 -x {0.0 3.0 27 ------- null}
- -t 0.3161888 -s 0 -d 4 -p tcp -e 1040 -c 0 -i 66 -a 0 -x {0.0 3.0 27 ------- null}
h -t 0.3161888 -s 0 -d 4 -p tcp -e 1040 -c 0 -i 66 -a 0 -x {0.0 3.0 -1 ------- null}
+ -t 0.3162784 -s 0 -d 4 -p tcp -e 1040 -c 0 -i 67 -a 0 -x {0.0 3.0 28 ------- null}
- -t 0.3170416 -s 0 -d 4 -p tcp -e 1040 -c 0 -i 67 -a 0 -x {0.0 3.0 28 ------- null}
h -t 0.3170416 -s 0 -d 4 -p tcp -e 1040 -c 0 -i 67 -a 0 -x {0.0 3.0 -1 ------- null}
+ -t 0.3171312 -s 0 -d 4 -p tcp -e 1040 -c 0 -i 68 -a 0 -x {0.0 3.0 29 ------- null}
- -t 0.3178944 -s 0 -d 4 -p tcp -e 1040 -c 0 -i 68 -a 0 -x {0.0 3.0 29 ------- null}
h -t 0.3178944 -s 0 -d 4 -p tcp -e 1040 -c 0 -i 68 -a 0 -x {0.0 3.0 -1 ------- null}
+ -t 0.317984 -s 0 -d 4 -p tcp -e 1040 -c 0 -i 69 -a 0 -x {0.0 3.0 30 ------- null}
- -t 0.3187472 -s 0 -d 4 -p tcp -e 1040 -c 0 -i 69 -a 0 -x {0.0 3.0 30 ------- null}
h -t 0.3187472 -s 0 -d 4 -p tcp -e 1040 -c 0 -i 69 -a 0 -x {0.0 3.0 -1 ------- null}
+ -t 0.3188368 -s 0 -d 4 -p tcp -e 1040 -c 0 -i 70 -a 0 -x {0.0 3.0 31 ------- null}
- -t 0.3196 -s 0 -d 4 -p tcp -e 1040 -c 0 -i 70 -a 0 -x {0.0 3.0 31 ------- null}
h -t 0.3196 -s 0 -d 4 -p tcp -e 1040 -c 0 -i 70 -a 0 -x {0.0 3.0 -1 ------- null}
+ -t 0.3196896 -s 0 -d 4 -p tcp -e 1040 -c 0 -i 71 -a 0 -x {0.0 3.0 32 ------- null}
- -t 0.3204528 -s 0 -d 4 -p tcp -e 1040 -c 0 -i 71 -a 0 -x {0.0 3.0 32 ------- null}
h -t 0.3204528 -s 0 -d 4 -p tcp -e 1040 -c 0 -i 71 -a 0 -x {0.0 3.0 -1 ------- null}
+ -t 0.3205424 -s 0 -d 4 -p tcp -e 1040 -c 0 -i 72 -a 0 -x {0.0 3.0 33 ------- null}
- -t 0.3213056 -s 0 -d 4 -p tcp -e 1040 -c 0 -i 72 -a 0 -x {0.0 3.0 33 ------- null}
h -t 0.3213056 -s 0 -d 4 -p tcp -e 1040 -c 0 -i 72 -a 0 -x {0.0 3.0 -1 ------- null}
+ -t 0.3213952 -s 0 -d 4 -p tcp -e 1040 -c 0 -i 73 -a 0 -x {0.0 3.0 34 ------- null}
r -t 0.3219152 -s 4 -d 2 -p ack -e 40 -c 0 -i 60 -a 0 -x {1.0 2.0 3 ------- null}