h 0.1 0 4 tcp 40 ------- 0 0.0 3.0 0 0
+ 0.11 0 4 tcp 40 ------- 0 0.0 3.0 0 0
- 0.11 0 4 tcp 40 ------- 0 0.0 3.0 0 0
r 0.120055 4 3 tcp 40 ------- 0 0.0 3.0 0 0
h 0.120055 3 4 ack 40 ------- 0 3.0 0.0 0 1
+ 0.130055 3 4 ack 40 ------- 0 3.0 0.0 0 1
- 0.130055 3 4 ack 40 ------- 0 3.0 0.0 0 1
r 0.14011 4 0 ack 40 ------- 0 3.0 0.0 0 1
h 0.14011 0 4 tcp 1040 ------- 0 0.0 3.0 1 2
h 0.14011 0 4 tcp 1040 ------- 0 0.0 3.0 2 3
+ 0.15011 0 4 tcp 1040 ------- 0 0.0 3.0 1 2
- 0.15011 0 4 tcp 1040 ------- 0 0.0 3.0 1 2
+ 0.15011 0 4 tcp 1040 ------- 0 0.0 3.0 2 3
- 0.150963 0 4 tcp 1040 ------- 0 0.0 3.0 2 3
r 0.160958 4 3 tcp 1040 ------- 0 0.0 3.0 1 2
h 0.160958 3 4 ack 40 ------- 0 3.0 0.0 1 4
r 0.16181 4 3 tcp 1040 ------- 0 0.0 3.0 2 3
h 0.16181 3 4 ack 40 ------- 0 3.0 0.0 2 5
+ 0.170958 3 4 ack 40 ------- 0 3.0 0.0 1 4
- 0.170958 3 4 ack 40 ------- 0 3.0 0.0 1 4
+ 0.17181 3 4 ack 40 ------- 0 3.0 0.0 2 5
- 0.17181 3 4 ack 40 ------- 0 3.0 0.0 2 5
r 0.181013 4 0 ack 40 ------- 0 3.0 0.0 1 4
h 0.181013 0 4 tcp 1040 ------- 0 0.0 3.0 3 6
h 0.181013 0 4 tcp 1040 ------- 0 0.0 3.0 4 7
r 0.181866 4 0 ack 40 ------- 0 3.0 0.0 2 5
h 0.181866 0 4 tcp 1040 ------- 0 0.0 3.0 5 8
h 0.181866 0 4 tcp 1040 ------- 0 0.0 3.0 6 9
+ 0.191013 0 4 tcp 1040 ------- 0 0.0 3.0 3 6
- 0.191013 0 4 tcp 1040 ------- 0 0.0 3.0 3 6
+ 0.191013 0 4 tcp 1040 ------- 0 0.0 3.0 4 7
+ 0.191866 0 4 tcp 1040 ------- 0 0.0 3.0 5 8
+ 0.191866 0 4 tcp 1040 ------- 0 0.0 3.0 6 9
- 0.191866 0 4 tcp 1040 ------- 0 0.0 3.0 4 7
- 0.192718 0 4 tcp 1040 ------- 0 0.0 3.0 5 8
- 0.193571 0 4 tcp 1040 ------- 0 0.0 3.0 6 9
h 0.2 2 4 tcp 40 ------- 0 2.0 1.0 0 10
r 0.20186 4 3 tcp 1040 ------- 0 0.0 3.0 3 6
h 0.20186 3 4 ack 40 ------- 0 3.0 0.0 3 11
r 0.202713 4 3 tcp 1040 ------- 0 0.0 3.0 4 7
h 0.202713 3 4 ack 40 ------- 0 3.0 0.0 4 12
r 0.203566 4 3 tcp 1040 ------- 0 0.0 3.0 5 8
h 0.203566 3 4 ack 40 ------- 0 3.0 0.0 5 13
r 0.204418 4 3 tcp 1040 ------- 0 0.0 3.0 6 9
h 0.204418 3 4 ack 40 ------- 0 3.0 0.0 6 14
+ 0.21 2 4 tcp 40 ------- 0 2.0 1.0 0 10
- 0.21 2 4 tcp 40 ------- 0 2.0 1.0 0 10
+ 0.21186 3 4 ack 40 ------- 0 3.0 0.0 3 11
- 0.21186 3 4 ack 40 ------- 0 3.0 0.0 3 11
+ 0.212713 3 4 ack 40 ------- 0 3.0 0.0 4 12
- 0.212713 3 4 ack 40 ------- 0 3.0 0.0 4 12
+ 0.213566 3 4 ack 40 ------- 0 3.0 0.0 5 13
- 0.213566 3 4 ack 40 ------- 0 3.0 0.0 5 13
+ 0.214418 3 4 ack 40 ------- 0 3.0 0.0 6 14
- 0.214418 3 4 ack 40 ------- 0 3.0 0.0 6 14
r 0.220055 4 1 tcp 40 ------- 0 2.0 1.0 0 10
h 0.220055 1 4 ack 40 ------- 0 1.0 2.0 0 15
r 0.221915 4 0 ack 40 ------- 0 3.0 0.0 3 11
h 0.221915 0 4 tcp 1040 ------- 0 0.0 3.0 7 16
h 0.221915 0 4 tcp 1040 ------- 0 0.0 3.0 8 17
r 0.222768 4 0 ack 40 ------- 0 3.0 0.0 4 12
h 0.222768 0 4 tcp 1040 ------- 0 0.0 3.0 9 18
h 0.222768 0 4 tcp 1040 ------- 0 0.0 3.0 10 19
r 0.223621 4 0 ack 40 ------- 0 3.0 0.0 5 13
h 0.223621 0 4 tcp 1040 ------- 0 0.0 3.0 11 20
h 0.223621 0 4 tcp 1040 ------- 0 0.0 3.0 12 21
r 0.224474 4 0 ack 40 ------- 0 3.0 0.0 6 14
h 0.224474 0 4 tcp 1040 ------- 0 0.0 3.0 13 22
h 0.224474 0 4 tcp 1040 ------- 0 0.0 3.0 14 23
+ 0.230055 1 4 ack 40 ------- 0 1.0 2.0 0 15
- 0.230055 1 4 ack 40 ------- 0 1.0 2.0 0 15
+ 0.231915 0 4 tcp 1040 ------- 0 0.0 3.0 7 16
- 0.231915 0 4 tcp 1040 ------- 0 0.0 3.0 7 16
+ 0.231915 0 4 tcp 1040 ------- 0 0.0 3.0 8 17
+ 0.232768 0 4 tcp 1040 ------- 0 0.0 3.0 9 18
+ 0.232768 0 4 tcp 1040 ------- 0 0.0 3.0 10 19
- 0.232768 0 4 tcp 1040 ------- 0 0.0 3.0 8 17
+ 0.233621 0 4 tcp 1040 ------- 0 0.0 3.0 11 20
+ 0.233621 0 4 tcp 1040 ------- 0 0.0 3.0 12 21
- 0.233621 0 4 tcp 1040 ------- 0 0.0 3.0 9 18
+ 0.234474 0 4 tcp 1040 ------- 0 0.0 3.0 13 22
+ 0.234474 0 4 tcp 1040 ------- 0 0.0 3.0 14 23
- 0.234474 0 4 tcp 1040 ------- 0 0.0 3.0 10 19
- 0.235326 0 4 tcp 1040 ------- 0 0.0 3.0 11 20
- 0.236179 0 4 tcp 1040 ------- 0 0.0 3.0 12 21
- 0.237032 0 4 tcp 1040 ------- 0 0.0 3.0 13 22
- 0.237885 0 4 tcp 1040 ------- 0 0.0 3.0 14 23
r 0.24011 4 2 ack 40 ------- 0 1.0 2.0 0 15
h 0.24011 2 4 tcp 1040 ------- 0 2.0 1.0 1 24
h 0.24011 2 4 tcp 1040 ------- 0 2.0 1.0 2 25
r 0.242762 4 3 tcp 1040 ------- 0 0.0 3.0 7 16
h 0.242762 3 4 ack 40 ------- 0 3.0 0.0 7 26
r 0.243615 4 3 tcp 1040 ------- 0 0.0 3.0 8 17
h 0.243615 3 4 ack 40 ------- 0 3.0 0.0 8 27
r 0.244468 4 3 tcp 1040 ------- 0 0.0 3.0 9 18
h 0.244468 3 4 ack 40 ------- 0 3.0 0.0 9 28
r 0.245321 4 3 tcp 1040 ------- 0 0.0 3.0 10 19
h 0.245321 3 4 ack 40 ------- 0 3.0 0.0 10 29
r 0.246174 4 3 tcp 1040 ------- 0 0.0 3.0 11 20
h 0.246174 3 4 ack 40 ------- 0 3.0 0.0 11 30
r 0.247026 4 3 tcp 1040 ------- 0 0.0 3.0 12 21
h 0.247026 3 4 ack 40 ------- 0 3.0 0.0 12 31
r 0.247879 4 3 tcp 1040 ------- 0 0.0 3.0 13 22
h 0.247879 3 4 ack 40 ------- 0 3.0 0.0 13 32
r 0.248732 4 3 tcp 1040 ------- 0 0.0 3.0 14 23
h 0.248732 3 4 ack 40 ------- 0 3.0 0.0 14 33
+ 0.25011 2 4 tcp 1040 ------- 0 2.0 1.0 1 24
- 0.25011 2 4 tcp 1040 ------- 0 2.0 1.0 1 24
+ 0.25011 2 4 tcp 1040 ------- 0 2.0 1.0 2 25
- 0.250963 2 4 tcp 1040 ------- 0 2.0 1.0 2 25
+ 0.252762 3 4 ack 40 ------- 0 3.0 0.0 7 26
- 0.252762 3 4 ack 40 ------- 0 3.0 0.0 7 26
+ 0.253615 3 4 ack 40 ------- 0 3.0 0.0 8 27
- 0.253615 3 4 ack 40 ------- 0 3.0 0.0 8 27
+ 0.254468 3 4 ack 40 ------- 0 3.0 0.0 9 28
- 0.254468 3 4 ack 40 ------- 0 3.0 0.0 9 28
+ 0.255321 3 4 ack 40 ------- 0 3.0 0.0 10 29
- 0.255321 3 4 ack 40 ------- 0 3.0 0.0 10 29
+ 0.256174 3 4 ack 40 ------- 0 3.0 0.0 11 30
- 0.256174 3 4 ack 40 ------- 0 3.0 0.0 11 30
+ 0.257026 3 4 ack 40 ------- 0 3.0 0.0 12 31
- 0.257026 3 4 ack 40 ------- 0 3.0 0.0 12 31
+ 0.257879 3 4 ack 40 ------- 0 3.0 0.0 13 32
- 0.257879 3 4 ack 40 ------- 0 3.0 0.0 13 32
+ 0.258732 3 4 ack 40 ------- 0 3.0 0.0 14 33
- 0.258732 3 4 ack 40 ------- 0 3.0 0.0 14 33
r 0.260958 4 1 tcp 1040 ------- 0 2.0 1.0 1 24
h 0.260958 1 4 ack 40 ------- 0 1.0 2.0 1 34
r 0.26181 4 1 tcp 1040 ------- 0 2.0 1.0 2 25
h 0.26181 1 4 ack 40 ------- 0 1.0 2.0 2 35
r 0.262818 4 0 ack 40 ------- 0 3.0 0.0 7 26
h 0.262818 0 4 tcp 1040 ------- 0 0.0 3.0 15 36
h 0.262818 0 4 tcp 1040 ------- 0 0.0 3.0 16 37
r 0.26367 4 0 ack 40 ------- 0 3.0 0.0 8 27
h 0.26367 0 4 tcp 1040 ------- 0 0.0 3.0 17 38
h 0.26367 0 4 tcp 1040 ------- 0 0.0 3.0 18 39
r 0.264523 4 0 ack 40 ------- 0 3.0 0.0 9 28
h 0.264523 0 4 tcp 1040 ------- 0 0.0 3.0 19 40
r 0.265376 4 0 ack 40 ------- 0 3.0 0.0 10 29
h 0.265376 0 4 tcp 1040 ------- 0 0.0 3.0 20 41
r 0.266229 4 0 ack 40 ------- 0 3.0 0.0 11 30
h 0.266229 0 4 tcp 1040 ------- 0 0.0 3.0 21 42
r 0.267082 4 0 ack 40 ------- 0 3.0 0.0 12 31
h 0.267082 0 4 tcp 1040 ------- 0 0.0 3.0 22 43
r 0.267934 4 0 ack 40 ------- 0 3.0 0.0 13 32
h 0.267934 0 4 tcp 1040 ------- 0 0.0 3.0 23 44
r 0.268787 4 0 ack 40 ------- 0 3.0 0.0 14 33
h 0.268787 0 4 tcp 1040 ------- 0 0.0 3.0 24 45
+ 0.270958 1 4 ack 40 ------- 0 1.0 2.0 1 34
- 0.270958 1 4 ack 40 ------- 0 1.0 2.0 1 34
+ 0.27181 1 4 ack 40 ------- 0 1.0 2.0 2 35
- 0.27181 1 4 ack 40 ------- 0 1.0 2.0 2 35
+ 0.272818 0 4 tcp 1040 ------- 0 0.0 3.0 15 36
- 0.272818 0 4 tcp 1040 ------- 0 0.0 3.0 15 36
+ 0.272818 0 4 tcp 1040 ------- 0 0.0 3.0 16 37
+ 0.27367 0 4 tcp 1040 ------- 0 0.0 3.0 17 38
+ 0.27367 0 4 tcp 1040 ------- 0 0.0 3.0 18 39
- 0.27367 0 4 tcp 1040 ------- 0 0.0 3.0 16 37
+ 0.274523 0 4 tcp 1040 ------- 0 0.0 3.0 19 40
- 0.274523 0 4 tcp 1040 ------- 0 0.0 3.0 17 38
+ 0.275376 0 4 tcp 1040 ------- 0 0.0 3.0 20 41
- 0.275376 0 4 tcp 1040 ------- 0 0.0 3.0 18 39
+ 0.276229 0 4 tcp 1040 ------- 0 0.0 3.0 21 42
- 0.276229 0 4 tcp 1040 ------- 0 0.0 3.0 19 40
+ 0.277082 0 4 tcp 1040 ------- 0 0.0 3.0 22 43
- 0.277082 0 4 tcp 1040 ------- 0 0.0 3.0 20 41
+ 0.277934 0 4 tcp 1040 ------- 0 0.0 3.0 23 44
- 0.277934 0 4 tcp 1040 ------- 0 0.0 3.0 21 42
+ 0.278787 0 4 tcp 1040 ------- 0 0.0 3.0 24 45
- 0.278787 0 4 tcp 1040 ------- 0 0.0 3.0 22 43
- 0.27964 0 4 tcp 1040 ------- 0 0.0 3.0 23 44
- 0.280493 0 4 tcp 1040 ------- 0 0.0 3.0 24 45
r 0.281013 4 2 ack 40 ------- 0 1.0 2.0 1 34
h 0.281013 2 4 tcp 1040 ------- 0 2.0 1.0 3 46
h 0.281013 2 4 tcp 1040 ------- 0 2.0 1.0 4 47
r 0.281866 4 2 ack 40 ------- 0 1.0 2.0 2 35
h 0.281866 2 4 tcp 1040 ------- 0 2.0 1.0 5 48
h 0.281866 2 4 tcp 1040 ------- 0 2.0 1.0 6 49
r 0.283665 4 3 tcp 1040 ------- 0 0.0 3.0 15 36
h 0.283665 3 4 ack 40 ------- 0 3.0 0.0 15 50
r 0.284518 4 3 tcp 1040 ------- 0 0.0 3.0 16 37
h 0.284518 3 4 ack 40 ------- 0 3.0 0.0 16 51
r 0.28537 4 3 tcp 1040 ------- 0 0.0 3.0 17 38
h 0.28537 3 4 ack 40 ------- 0 3.0 0.0 17 52
r 0.286223 4 3 tcp 1040 ------- 0 0.0 3.0 18 39
h 0.286223 3 4 ack 40 ------- 0 3.0 0.0 18 53
r 0.287076 4 3 tcp 1040 ------- 0 0.0 3.0 19 40
h 0.287076 3 4 ack 40 ------- 0 3.0 0.0 19 54
r 0.287929 4 3 tcp 1040 ------- 0 0.0 3.0 20 41
h 0.287929 3 4 ack 40 ------- 0 3.0 0.0 20 55
r 0.288782 4 3 tcp 1040 ------- 0 0.0 3.0 21 42
h 0.288782 3 4 ack 40 ------- 0 3.0 0.0 21 56
r 0.289634 4 3 tcp 1040 ------- 0 0.0 3.0 22 43
h 0.289634 3 4 ack 40 ------- 0 3.0 0.0 22 57
r 0.290487 4 3 tcp 1040 ------- 0 0.0 3.0 23 44
h 0.290487 3 4 ack 40 ------- 0 3.0 0.0 23 58
+ 0.291013 2 4 tcp 1040 ------- 0 2.0 1.0 3 46
- 0.291013 2 4 tcp 1040 ------- 0 2.0 1.0 3 46
+ 0.291013 2 4 tcp 1040 ------- 0 2.0 1.0 4 47
r 0.29134 4 3 tcp 1040 ------- 0 0.0 3.0 24 45
h 0.29134 3 4 ack 40 ------- 0 3.0 0.0 24 59
+ 0.291866 2 4 tcp 1040 ------- 0 2.0 1.0 5 48
+ 0.291866 2 4 tcp 1040 ------- 0 2.0 1.0 6 49
- 0.291866 2 4 tcp 1040 ------- 0 2.0 1.0 4 47
- 0.292718 2 4 tcp 1040 ------- 0 2.0 1.0 5 48
- 0.293571 2 4 tcp 1040 ------- 0 2.0 1.0 6 49
+ 0.293665 3 4 ack 40 ------- 0 3.0 0.0 15 50
- 0.293665 3 4 ack 40 ------- 0 3.0 0.0 15 50
+ 0.294518 3 4 ack 40 ------- 0 3.0 0.0 16 51
- 0.294518 3 4 ack 40 ------- 0 3.0 0.0 16 51
+ 0.29537 3 4 ack 40 ------- 0 3.0 0.0 17 52
- 0.29537 3 4 ack 40 ------- 0 3.0 0.0 17 52
+ 0.296223 3 4 ack 40 ------- 0 3.0 0.0 18 53
- 0.296223 3 4 ack 40 ------- 0 3.0 0.0 18 53
+ 0.297076 3 4 ack 40 ------- 0 3.0 0.0 19 54
- 0.297076 3 4 ack 40 ------- 0 3.0 0.0 19 54
+ 0.297929 3 4 ack 40 ------- 0 3.0 0.0 20 55
- 0.297929 3 4 ack 40 ------- 0 3.0 0.0 20 55
+ 0.298782 3 4 ack 40 ------- 0 3.0 0.0 21 56
- 0.298782 3 4 ack 40 ------- 0 3.0 0.0 21 56
+ 0.299634 3 4 ack 40 ------- 0 3.0 0.0 22 57
- 0.299634 3 4 ack 40 ------- 0 3.0 0.0 22 57
+ 0.300487 3 4 ack 40 ------- 0 3.0 0.0 23 58
- 0.300487 3 4 ack 40 ------- 0 3.0 0.0 23 58
+ 0.30134 3 4 ack 40 ------- 0 3.0 0.0 24 59
- 0.30134 3 4 ack 40 ------- 0 3.0 0.0 24 59
r 0.30186 4 1 tcp 1040 ------- 0 2.0 1.0 3 46
h 0.30186 1 4 ack 40 ------- 0 1.0 2.0 3 60
r 0.302713 4 1 tcp 1040 ------- 0 2.0 1.0 4 47
h 0.302713 1 4 ack 40 ------- 0 1.0 2.0 4 61
r 0.303566 4 1 tcp 1040 ------- 0 2.0 1.0 5 48
h 0.303566 1 4 ack 40 ------- 0 1.0 2.0 5 62
r 0.304418 4 1 tcp 1040 ------- 0 2.0 1.0 6 49
h 0.304418 1 4 ack 40 ------- 0 1.0 2.0 6 63
r 0.304483 4 0 ack 40 ------- 0 3.0 0.0 15 50
h 0.304483 0 4 tcp 1040 ------- 0 0.0 3.0 25 64
r 0.304573 4 0 ack 40 ------- 0 3.0 0.0 16 51
h 0.304573 0 4 tcp 1040 ------- 0 0.0 3.0 26 65
r 0.305426 4 0 ack 40 ------- 0 3.0 0.0 17 52
h 0.305426 0 4 tcp 1040 ------- 0 0.0 3.0 27 66
r 0.306278 4 0 ack 40 ------- 0 3.0 0.0 18 53
h 0.306278 0 4 tcp 1040 ------- 0 0.0 3.0 28 67
r 0.307131 4 0 ack 40 ------- 0 3.0 0.0 19 54
h 0.307131 0 4 tcp 1040 ------- 0 0.0 3.0 29 68
r 0.307984 4 0 ack 40 ------- 0 3.0 0.0 20 55
h 0.307984 0 4 tcp 1040 ------- 0 0.0 3.0 30 69
r 0.308837 4 0 ack 40 ------- 0 3.0 0.0 21 56
h 0.308837 0 4 tcp 1040 ------- 0 0.0 3.0 31 70
r 0.30969 4 0 ack 40 ------- 0 3.0 0.0 22 57
h 0.30969 0 4 tcp 1040 ------- 0 0.0 3.0 32 71
r 0.310542 4 0 ack 40 ------- 0 3.0 0.0 23 58
h 0.310542 0 4 tcp 1040 ------- 0 0.0 3.0 33 72
r 0.311395 4 0 ack 40 ------- 0 3.0 0.0 24 59
h 0.311395 0 4 tcp 1040 ------- 0 0.0 3.0 34 73
+ 0.31186 1 4 ack 40 ------- 0 1.0 2.0 3 60
- 0.31186 1 4 ack 40 ------- 0 1.0 2.0 3 60
+ 0.312713 1 4 ack 40 ------- 0 1.0 2.0 4 61
- 0.312713 1 4 ack 40 ------- 0 1.0 2.0 4 61
+ 0.313566 1 4 ack 40 ------- 0 1.0 2.0 5 62
- 0.313566 1 4 ack 40 ------- 0 1.0 2.0 5 62
+ 0.314418 1 4 ack 40 ------- 0 1.0 2.0 6 63
- 0.314418 1 4 ack 40 ------- 0 1.0 2.0 6 63
+ 0.314483 0 4 tcp 1040 ------- 0 0.0 3.0 25 64
- 0.314483 0 4 tcp 1040 ------- 0 0.0 3.0 25 64
+ 0.314573 0 4 tcp 1040 ------- 0 0.0 3.0 26 65
- 0.315336 0 4 tcp 1040 ------- 0 0.0 3.0 26 65
+ 0.315426 0 4 tcp 1040 ------- 0 0.0 3.0 27 66
- 0.316189 0 4 tcp 1040 ------- 0 0.0 3.0 27 66
+ 0.316278 0 4 tcp 1040 ------- 0 0.0 3.0 28 67
- 0.317042 0 4 tcp 1040 ------- 0 0.0 3.0 28 67
+ 0.317131 0 4 tcp 1040 ------- 0 0.0 3.0 29 68
- 0.317894 0 4 tcp 1040 ------- 0 0.0 3.0 29 68
+ 0.317984 0 4 tcp 1040 ------- 0 0.0 3.0 30 69
- 0.318747 0 4 tcp 1040 ------- 0 0.0 3.0 30 69
+ 0.318837 0 4 tcp 1040 ------- 0 0.0 3.0 31 70
- 0.3196 0 4 tcp 1040 ------- 0 0.0 3.0 31 70
+ 0.31969 0 4 tcp 1040 ------- 0 0.0 3.0 32 71
- 0.320453 0 4 tcp 1040 ------- 0 0.0 3.0 32 71
+ 0.320542 0 4 tcp 1040 ------- 0 0.0 3.0 33 72
- 0.321306 0 4 tcp 1040 ------- 0 0.0 3.0 33 72
+ 0.321395 0 4 tcp 1040 ------- 0 0.0 3.0 34 73
r 0.321915 4 2 ack 40 ------- 0 1.0 2.0 3 60
h 0.321915 2 4 tcp 1040 ------- 0 2.0 1.0 7 74
h 0.321915 2 4 tcp 1040 ------- 0 2.0 1.0 8 75
- 0.322158 0 4 tcp 1040 ------- 0 0.0 3.0 34 73
r 0.322768 4 2 ack 40 ------- 0 1.0 2.0 4 61
h 0.322768 2 4 tcp 1040 ------- 0 2.0 1.0 9 76
h 0.322768 2 4 tcp 1040 ------- 0 2.0 1.0 10 77
r 0.323621 4 2 ack 40 ------- 0 1.0 2.0 5 62
h 0.323621 2 4 tcp 1040 ------- 0 2.0 1.0 11 78
h 0.323621 2 4 tcp 1040 ------- 0 2.0 1.0 12 79
r 0.324474 4 2 ack 40 ------- 0 1.0 2.0 6 63
h 0.324474 2 4 tcp 1040 ------- 0 2.0 1.0 13 80
h 0.324474 2 4 tcp 1040 ------- 0 2.0 1.0 14 81
r 0.32533 4 3 tcp 1040 ------- 0 0.0 3.0 25 64
h 0.32533 3 4 ack 40 ------- 0 3.0 0.0 25 82
r 0.326183 4 3 tcp 1040 ------- 0 0.0 3.0 26 65
h 0.326183 3 4 ack 40 ------- 0 3.0 0.0 26 83
r 0.327036 4 3 tcp 1040 ------- 0 0.0 3.0 27 66
h 0.327036 3 4 ack 40 ------- 0 3.0 0.0 27 84
r 0.327889 4 3 tcp 1040 ------- 0 0.0 3.0 28 67
h 0.327889 3 4 ack 40 ------- 0 3.0 0.0 28 85
r 0.328742 4 3 tcp 1040 ------- 0 0.0 3.0 29 68
h 0.328742 3 4 ack 40 ------- 0 3.0 0.0 29 86
r 0.329594 4 3 tcp 1040 ------- 0 0.0 3.0 30 69
h 0.329594 3 4 ack 40 ------- 0 3.0 0.0 30 87
r 0.330447 4 3 tcp 1040 ------- 0 0.0 3.0 31 70
h 0.330447 3 4 ack 40 ------- 0 3.0 0.0 31 88
r 0.3313 4 3 tcp 1040 ------- 0 0.0 3.0 32 71
h 0.3313 3 4 ack 40 ------- 0 3.0 0.0 32 89
+ 0.331915 2 4 tcp 1040 ------- 0 2.0 1.0 7 74
- 0.331915 2 4 tcp 1040 ------- 0 2.0 1.0 7 74
+ 0.331915 2 4 tcp 1040 ------- 0 2.0 1.0 8 75
r 0.332153 4 3 tcp 1040 ------- 0 0.0 3.0 33 72
h 0.332153 3 4 ack 40 ------- 0 3.0 0.0 33 90
+ 0.332768 2 4 tcp 1040 ------- 0 2.0 1.0 9 76
+ 0.332768 2 4 tcp 1040 ------- 0 2.0 1.0 10 77
- 0.332768 2 4 tcp 1040 ------- 0 2.0 1.0 8 75
r 0.333006 4 3 tcp 1040 ------- 0 0.0 3.0 34 73
h 0.333006 3 4 ack 40 ------- 0 3.0 0.0 34 91
+ 0.333621 2 4 tcp 1040 ------- 0 2.0 1.0 11 78
+ 0.333621 2 4 tcp 1040 ------- 0 2.0 1.0 12 79
- 0.333621 2 4 tcp 1040 ------- 0 2.0 1.0 9 76
+ 0.334474 2 4 tcp 1040 ------- 0 2.0 1.0 13 80
+ 0.334474 2 4 tcp 1040 ------- 0 2.0 1.0 14 81
- 0.334474 2 4 tcp 1040 ------- 0 2.0 1.0 10 77
- 0.335326 2 4 tcp 1040 ------- 0 2.0 1.0 11 78
+ 0.33533 3 4 ack 40 ------- 0 3.0 0.0 25 82
- 0.33533 3 4 ack 40 ------- 0 3.0 0.0 25 82
+ 0.336183 3 4 ack 40 ------- 0 3.0 0.0 26 83
- 0.3362 2 4 tcp 1040 ------- 0 2.0 1.0 12 79
+ 0.337036 3 4 ack 40 ------- 0 3.0 0.0 27 84
- 0.337125 2 4 tcp 1040 ------- 0 2.0 1.0 13 80
+ 0.337889 3 4 ack 40 ------- 0 3.0 0.0 28 85
- 0.337998 2 4 tcp 1040 ------- 0 2.0 1.0 14 81
+ 0.338742 3 4 ack 40 ------- 0 3.0 0.0 29 86
- 0.338988 3 4 ack 40 ------- 0 3.0 0.0 26 83
- 0.339049 3 4 ack 40 ------- 0 3.0 0.0 27 84
- 0.33911 3 4 ack 40 ------- 0 3.0 0.0 28 85
- 0.33917 3 4 ack 40 ------- 0 3.0 0.0 29 86
+ 0.339594 3 4 ack 40 ------- 0 3.0 0.0 30 87
- 0.339594 3 4 ack 40 ------- 0 3.0 0.0 30 87
+ 0.340447 3 4 ack 40 ------- 0 3.0 0.0 31 88
- 0.340447 3 4 ack 40 ------- 0 3.0 0.0 31 88
+ 0.3413 3 4 ack 40 ------- 0 3.0 0.0 32 89
- 0.3413 3 4 ack 40 ------- 0 3.0 0.0 32 89
+ 0.342153 3 4 ack 40 ------- 0 3.0 0.0 33 90
- 0.342153 3 4 ack 40 ------- 0 3.0 0.0 33 90
r 0.342762 4 1 tcp 1040 ------- 0 2.0 1.0 7 74
h 0.342762 1 4 ack 40 ------- 0 1.0 2.0 7 92
+ 0.343006 3 4 ack 40 ------- 0 3.0 0.0 34 91
- 0.343006 3 4 ack 40 ------- 0 3.0 0.0 34 91
r 0.343615 4 1 tcp 1040 ------- 0 2.0 1.0 8 75
h 0.343615 1 4 ack 40 ------- 0 1.0 2.0 8 93
r 0.344468 4 1 tcp 1040 ------- 0 2.0 1.0 9 76
h 0.344468 1 4 ack 40 ------- 0 1.0 2.0 9 94
r 0.345321 4 1 tcp 1040 ------- 0 2.0 1.0 10 77
h 0.345321 1 4 ack 40 ------- 0 1.0 2.0 10 95
r 0.346194 4 1 tcp 1040 ------- 0 2.0 1.0 11 78
h 0.346194 1 4 ack 40 ------- 0 1.0 2.0 11 96
r 0.347119 4 1 tcp 1040 ------- 0 2.0 1.0 12 79
h 0.347119 1 4 ack 40 ------- 0 1.0 2.0 12 97
r 0.347993 4 1 tcp 1040 ------- 0 2.0 1.0 13 80
h 0.347993 1 4 ack 40 ------- 0 1.0 2.0 13 98
r 0.348918 4 1 tcp 1040 ------- 0 2.0 1.0 14 81
h 0.348918 1 4 ack 40 ------- 0 1.0 2.0 14 99
r 0.348982 4 0 ack 40 ------- 0 3.0 0.0 25 82
h 0.348982 0 4 tcp 1040 ------- 0 0.0 3.0 35 100
r 0.349043 4 0 ack 40 ------- 0 3.0 0.0 26 83
h 0.349043 0 4 tcp 1040 ------- 0 0.0 3.0 36 101
r 0.349104 4 0 ack 40 ------- 0 3.0 0.0 27 84
h 0.349104 0 4 tcp 1040 ------- 0 0.0 3.0 37 102
r 0.349165 4 0 ack 40 ------- 0 3.0 0.0 28 85
h 0.349165 0 4 tcp 1040 ------- 0 0.0 3.0 38 103
r 0.349226 4 0 ack 40 ------- 0 3.0 0.0 29 86
h 0.349226 0 4 tcp 1040 ------- 0 0.0 3.0 39 104
r 0.34965 4 0 ack 40 ------- 0 3.0 0.0 30 87
h 0.34965 0 4 tcp 1040 ------- 0 0.0 3.0 40 105
r 0.350502 4 0 ack 40 ------- 0 3.0 0.0 31 88
h 0.350502 0 4 tcp 1040 ------- 0 0.0 3.0 41 106
r 0.351355 4 0 ack 40 ------- 0 3.0 0.0 32 89
h 0.351355 0 4 tcp 1040 ------- 0 0.0 3.0 42 107
r 0.352208 4 0 ack 40 ------- 0 3.0 0.0 33 90
h 0.352208 0 4 tcp 1040 ------- 0 0.0 3.0 43 108
+ 0.352762 1 4 ack 40 ------- 0 1.0 2.0 7 92
- 0.352762 1 4 ack 40 ------- 0 1.0 2.0 7 92
r 0.353061 4 0 ack 40 ------- 0 3.0 0.0 34 91
h 0.353061 0 4 tcp 1040 ------- 0 0.0 3.0 44 109
+ 0.353615 1 4 ack 40 ------- 0 1.0 2.0 8 93
- 0.353615 1 4 ack 40 ------- 0 1.0 2.0 8 93
+ 0.354468 1 4 ack 40 ------- 0 1.0 2.0 9 94
- 0.354468 1 4 ack 40 ------- 0 1.0 2.0 9 94
+ 0.355321 1 4 ack 40 ------- 0 1.0 2.0 10 95
- 0.355321 1 4 ack 40 ------- 0 1.0 2.0 10 95
+ 0.356194 1 4 ack 40 ------- 0 1.0 2.0 11 96
- 0.356194 1 4 ack 40 ------- 0 1.0 2.0 11 96
+ 0.357119 1 4 ack 40 ------- 0 1.0 2.0 12 97
- 0.357119 1 4 ack 40 ------- 0 1.0 2.0 12 97
+ 0.357993 1 4 ack 40 ------- 0 1.0 2.0 13 98
- 0.357993 1 4 ack 40 ------- 0 1.0 2.0 13 98
+ 0.358918 1 4 ack 40 ------- 0 1.0 2.0 14 99
- 0.358918 1 4 ack 40 ------- 0 1.0 2.0 14 99
+ 0.358982 0 4 tcp 1040 ------- 0 0.0 3.0 35 100
- 0.358982 0 4 tcp 1040 ------- 0 0.0 3.0 35 100
+ 0.359043 0 4 tcp 1040 ------- 0 0.0 3.0 36 101
+ 0.359104 0 4 tcp 1040 ------- 0 0.0 3.0 37 102
+ 0.359165 0 4 tcp 1040 ------- 0 0.0 3.0 38 103
+ 0.359226 0 4 tcp 1040 ------- 0 0.0 3.0 39 104
+ 0.35965 0 4 tcp 1040 ------- 0 0.0 3.0 40 105
- 0.359835 0 4 tcp 1040 ------- 0 0.0 3.0 36 101
+ 0.360502 0 4 tcp 1040 ------- 0 0.0 3.0 41 106
- 0.360688 0 4 tcp 1040 ------- 0 0.0 3.0 37 102
+ 0.361355 0 4 tcp 1040 ------- 0 0.0 3.0 42 107
- 0.361541 0 4 tcp 1040 ------- 0 0.0 3.0 38 103
+ 0.362208 0 4 tcp 1040 ------- 0 0.0 3.0 43 108
- 0.362394 0 4 tcp 1040 ------- 0 0.0 3.0 39 104
r 0.362818 4 2 ack 40 ------- 0 1.0 2.0 7 92
h 0.362818 2 4 tcp 1040 ------- 0 2.0 1.0 15 110
h 0.362818 2 4 tcp 1040 ------- 0 2.0 1.0 16 111
+ 0.363061 0 4 tcp 1040 ------- 0 0.0 3.0 44 109
- 0.363246 0 4 tcp 1040 ------- 0 0.0 3.0 40 105
r 0.36367 4 2 ack 40 ------- 0 1.0 2.0 8 93
h 0.36367 2 4 tcp 1040 ------- 0 2.0 1.0 17 112
h 0.36367 2 4 tcp 1040 ------- 0 2.0 1.0 18 113
- 0.364099 0 4 tcp 1040 ------- 0 0.0 3.0 41 106
r 0.364523 4 2 ack 40 ------- 0 1.0 2.0 9 94
h 0.364523 2 4 tcp 1040 ------- 0 2.0 1.0 19 114
- 0.364952 0 4 tcp 1040 ------- 0 0.0 3.0 42 107
r 0.365376 4 2 ack 40 ------- 0 1.0 2.0 10 95
h 0.365376 2 4 tcp 1040 ------- 0 2.0 1.0 20 115
- 0.365805 0 4 tcp 1040 ------- 0 0.0 3.0 43 108
r 0.36625 4 2 ack 40 ------- 0 1.0 2.0 11 96
h 0.36625 2 4 tcp 1040 ------- 0 2.0 1.0 21 116
- 0.366658 0 4 tcp 1040 ------- 0 0.0 3.0 44 109
r 0.367174 4 2 ack 40 ------- 0 1.0 2.0 12 97
h 0.367174 2 4 tcp 1040 ------- 0 2.0 1.0 22 117
r 0.368048 4 2 ack 40 ------- 0 1.0 2.0 13 98
h 0.368048 2 4 tcp 1040 ------- 0 2.0 1.0 23 118
r 0.368973 4 2 ack 40 ------- 0 1.0 2.0 14 99
h 0.368973 2 4 tcp 1040 ------- 0 2.0 1.0 24 119
r 0.36983 4 3 tcp 1040 ------- 0 0.0 3.0 35 100
h 0.36983 3 4 ack 40 ------- 0 3.0 0.0 35 120
r 0.370682 4 3 tcp 1040 ------- 0 0.0 3.0 36 101
h 0.370682 3 4 ack 40 ------- 0 3.0 0.0 36 121
r 0.371535 4 3 tcp 1040 ------- 0 0.0 3.0 37 102
h 0.371535 3 4 ack 40 ------- 0 3.0 0.0 37 122
r 0.372388 4 3 tcp 1040 ------- 0 0.0 3.0 38 103
h 0.372388 3 4 ack 40 ------- 0 3.0 0.0 38 123
+ 0.372818 2 4 tcp 1040 ------- 0 2.0 1.0 15 110
- 0.372818 2 4 tcp 1040 ------- 0 2.0 1.0 15 110
+ 0.372818 2 4 tcp 1040 ------- 0 2.0 1.0 16 111
r 0.373241 4 3 tcp 1040 ------- 0 0.0 3.0 39 104
h 0.373241 3 4 ack 40 ------- 0 3.0 0.0 39 124
+ 0.37367 2 4 tcp 1040 ------- 0 2.0 1.0 17 112
+ 0.37367 2 4 tcp 1040 ------- 0 2.0 1.0 18 113
- 0.37367 2 4 tcp 1040 ------- 0 2.0 1.0 16 111
r 0.374094 4 3 tcp 1040 ------- 0 0.0 3.0 40 105
h 0.374094 3 4 ack 40 ------- 0 3.0 0.0 40 125
+ 0.374523 2 4 tcp 1040 ------- 0 2.0 1.0 19 114
- 0.374523 2 4 tcp 1040 ------- 0 2.0 1.0 17 112
r 0.374946 4 3 tcp 1040 ------- 0 0.0 3.0 41 106
h 0.374946 3 4 ack 40 ------- 0 3.0 0.0 41 126
+ 0.375376 2 4 tcp 1040 ------- 0 2.0 1.0 20 115
- 0.375376 2 4 tcp 1040 ------- 0 2.0 1.0 18 113
r 0.375799 4 3 tcp 1040 ------- 0 0.0 3.0 42 107
h 0.375799 3 4 ack 40 ------- 0 3.0 0.0 42 127
- 0.376229 2 4 tcp 1040 ------- 0 2.0 1.0 19 114
+ 0.37625 2 4 tcp 1040 ------- 0 2.0 1.0 21 116
r 0.376652 4 3 tcp 1040 ------- 0 0.0 3.0 43 108
h 0.376652 3 4 ack 40 ------- 0 3.0 0.0 43 128
- 0.377082 2 4 tcp 1040 ------- 0 2.0 1.0 20 115
+ 0.377174 2 4 tcp 1040 ------- 0 2.0 1.0 22 117
r 0.377505 4 3 tcp 1040 ------- 0 0.0 3.0 44 109
h 0.377505 3 4 ack 40 ------- 0 3.0 0.0 44 129
- 0.377934 2 4 tcp 1040 ------- 0 2.0 1.0 21 116
+ 0.378048 2 4 tcp 1040 ------- 0 2.0 1.0 23 118
- 0.378787 2 4 tcp 1040 ------- 0 2.0 1.0 22 117
+ 0.378973 2 4 tcp 1040 ------- 0 2.0 1.0 24 119
- 0.37964 2 4 tcp 1040 ------- 0 2.0 1.0 23 118
+ 0.37983 3 4 ack 40 ------- 0 3.0 0.0 35 120
- 0.37983 3 4 ack 40 ------- 0 3.0 0.0 35 120
- 0.380493 2 4 tcp 1040 ------- 0 2.0 1.0 24 119
+ 0.380682 3 4 ack 40 ------- 0 3.0 0.0 36 121
- 0.380682 3 4 ack 40 ------- 0 3.0 0.0 36 121
+ 0.381535 3 4 ack 40 ------- 0 3.0 0.0 37 122
- 0.381682 3 4 ack 40 ------- 0 3.0 0.0 37 122
+ 0.382388 3 4 ack 40 ------- 0 3.0 0.0 38 123
- 0.382388 3 4 ack 40 ------- 0 3.0 0.0 38 123
+ 0.383241 3 4 ack 40 ------- 0 3.0 0.0 39 124
- 0.383241 3 4 ack 40 ------- 0 3.0 0.0 39 124
r 0.383665 4 1 tcp 1040 ------- 0 2.0 1.0 15 110
h 0.383665 1 4 ack 40 ------- 0 1.0 2.0 15 130
+ 0.384094 3 4 ack 40 ------- 0 3.0 0.0 40 125
- 0.384094 3 4 ack 40 ------- 0 3.0 0.0 40 125
r 0.384518 4 1 tcp 1040 ------- 0 2.0 1.0 16 111
h 0.384518 1 4 ack 40 ------- 0 1.0 2.0 16 131
+ 0.384946 3 4 ack 40 ------- 0 3.0 0.0 41 126
- 0.384946 3 4 ack 40 ------- 0 3.0 0.0 41 126
r 0.38537 4 1 tcp 1040 ------- 0 2.0 1.0 17 112
h 0.38537 1 4 ack 40 ------- 0 1.0 2.0 17 132
+ 0.385799 3 4 ack 40 ------- 0 3.0 0.0 42 127
- 0.385799 3 4 ack 40 ------- 0 3.0 0.0 42 127
r 0.386223 4 1 tcp 1040 ------- 0 2.0 1.0 18 113
h 0.386223 1 4 ack 40 ------- 0 1.0 2.0 18 133
+ 0.386652 3 4 ack 40 ------- 0 3.0 0.0 43 128
- 0.386652 3 4 ack 40 ------- 0 3.0 0.0 43 128
r 0.387076 4 1 tcp 1040 ------- 0 2.0 1.0 19 114
h 0.387076 1 4 ack 40 ------- 0 1.0 2.0 19 134
+ 0.387505 3 4 ack 40 ------- 0 3.0 0.0 44 129
- 0.387505 3 4 ack 40 ------- 0 3.0 0.0 44 129
r 0.387929 4 1 tcp 1040 ------- 0 2.0 1.0 20 115
h 0.387929 1 4 ack 40 ------- 0 1.0 2.0 20 135
r 0.388782 4 1 tcp 1040 ------- 0 2.0 1.0 21 116
h 0.388782 1 4 ack 40 ------- 0 1.0 2.0 21 136
r 0.389634 4 1 tcp 1040 ------- 0 2.0 1.0 22 117
h 0.389634 1 4 ack 40 ------- 0 1.0 2.0 22 137
r 0.390487 4 1 tcp 1040 ------- 0 2.0 1.0 23 118
h 0.390487 1 4 ack 40 ------- 0 1.0 2.0 23 138
r 0.390586 4 0 ack 40 ------- 0 3.0 0.0 35 120
h 0.390586 0 4 tcp 1040 ------- 0 0.0 3.0 45 139
r 0.391612 4 1 tcp 1040 ------- 0 2.0 1.0 24 119
h 0.391612 1 4 ack 40 ------- 0 1.0 2.0 24 140
r 0.391677 4 0 ack 40 ------- 0 3.0 0.0 36 121
h 0.391677 0 4 tcp 1040 ------- 0 0.0 3.0 46 141
r 0.391738 4 0 ack 40 ------- 0 3.0 0.0 37 122
h 0.391738 0 4 tcp 1040 ------- 0 0.0 3.0 47 142
r 0.392443 4 0 ack 40 ------- 0 3.0 0.0 38 123
h 0.392443 0 4 tcp 1040 ------- 0 0.0 3.0 48 143
r 0.393296 4 0 ack 40 ------- 0 3.0 0.0 39 124
h 0.393296 0 4 tcp 1040 ------- 0 0.0 3.0 49 144
+ 0.393665 1 4 ack 40 ------- 0 1.0 2.0 15 130
- 0.393665 1 4 ack 40 ------- 0 1.0 2.0 15 130
r 0.394149 4 0 ack 40 ------- 0 3.0 0.0 40 125
h 0.394149 0 4 tcp 1040 ------- 0 0.0 3.0 50 145
+ 0.394518 1 4 ack 40 ------- 0 1.0 2.0 16 131
- 0.394518 1 4 ack 40 ------- 0 1.0 2.0 16 131
r 0.395002 4 0 ack 40 ------- 0 3.0 0.0 41 126
h 0.395002 0 4 tcp 1040 ------- 0 0.0 3.0 51 146
+ 0.39537 1 4 ack 40 ------- 0 1.0 2.0 17 132
- 0.39537 1 4 ack 40 ------- 0 1.0 2.0 17 132
r 0.395854 4 0 ack 40 ------- 0 3.0 0.0 42 127
h 0.395854 0 4 tcp 1040 ------- 0 0.0 3.0 52 147
+ 0.396223 1 4 ack 40 ------- 0 1.0 2.0 18 133
- 0.396223 1 4 ack 40 ------- 0 1.0 2.0 18 133
r 0.396707 4 0 ack 40 ------- 0 3.0 0.0 43 128
h 0.396707 0 4 tcp 1040 ------- 0 0.0 3.0 53 148
+ 0.397076 1 4 ack 40 ------- 0 1.0 2.0 19 134
- 0.397076 1 4 ack 40 ------- 0 1.0 2.0 19 134
r 0.39756 4 0 ack 40 ------- 0 3.0 0.0 44 129
h 0.39756 0 4 tcp 1040 ------- 0 0.0 3.0 54 149
+ 0.397929 1 4 ack 40 ------- 0 1.0 2.0 20 135
- 0.397929 1 4 ack 40 ------- 0 1.0 2.0 20 135
+ 0.398782 1 4 ack 40 ------- 0 1.0 2.0 21 136
- 0.398782 1 4 ack 40 ------- 0 1.0 2.0 21 136
+ 0.399634 1 4 ack 40 ------- 0 1.0 2.0 22 137
- 0.399634 1 4 ack 40 ------- 0 1.0 2.0 22 137
+ 0.400487 1 4 ack 40 ------- 0 1.0 2.0 23 138
- 0.400487 1 4 ack 40 ------- 0 1.0 2.0 23 138
+ 0.400586 0 4 tcp 1040 ------- 0 0.0 3.0 45 139
- 0.400586 0 4 tcp 1040 ------- 0 0.0 3.0 45 139
+ 0.401612 1 4 ack 40 ------- 0 1.0 2.0 24 140
- 0.401612 1 4 ack 40 ------- 0 1.0 2.0 24 140
+ 0.401677 0 4 tcp 1040 ------- 0 0.0 3.0 46 141
- 0.401677 0 4 tcp 1040 ------- 0 0.0 3.0 46 141
+ 0.401738 0 4 tcp 1040 ------- 0 0.0 3.0 47 142
+ 0.402443 0 4 tcp 1040 ------- 0 0.0 3.0 48 143
- 0.40253 0 4 tcp 1040 ------- 0 0.0 3.0 47 142
+ 0.403296 0 4 tcp 1040 ------- 0 0.0 3.0 49 144
- 0.403382 0 4 tcp 1040 ------- 0 0.0 3.0 48 143
r 0.40372 4 2 ack 40 ------- 0 1.0 2.0 15 130
h 0.40372 2 4 tcp 1040 ------- 0 2.0 1.0 25 150
+ 0.404149 0 4 tcp 1040 ------- 0 0.0 3.0 50 145
- 0.404235 0 4 tcp 1040 ------- 0 0.0 3.0 49 144
r 0.404573 4 2 ack 40 ------- 0 1.0 2.0 16 131
h 0.404573 2 4 tcp 1040 ------- 0 2.0 1.0 26 151
+ 0.405002 0 4 tcp 1040 ------- 0 0.0 3.0 51 146
- 0.405088 0 4 tcp 1040 ------- 0 0.0 3.0 50 145
r 0.405426 4 2 ack 40 ------- 0 1.0 2.0 17 132
h 0.405426 2 4 tcp 1040 ------- 0 2.0 1.0 27 152
+ 0.405854 0 4 tcp 1040 ------- 0 0.0 3.0 52 147
- 0.405941 0 4 tcp 1040 ------- 0 0.0 3.0 51 146
r 0.406278 4 2 ack 40 ------- 0 1.0 2.0 18 133
h 0.406278 2 4 tcp 1040 ------- 0 2.0 1.0 28 153
+ 0.406707 0 4 tcp 1040 ------- 0 0.0 3.0 53 148
- 0.406794 0 4 tcp 1040 ------- 0 0.0 3.0 52 147
r 0.407131 4 2 ack 40 ------- 0 1.0 2.0 19 134
h 0.407131 2 4 tcp 1040 ------- 0 2.0 1.0 29 154
+ 0.40756 0 4 tcp 1040 ------- 0 0.0 3.0 54 149
- 0.407646 0 4 tcp 1040 ------- 0 0.0 3.0 53 148
r 0.407984 4 2 ack 40 ------- 0 1.0 2.0 20 135
h 0.407984 2 4 tcp 1040 ------- 0 2.0 1.0 30 155
- 0.408499 0 4 tcp 1040 ------- 0 0.0 3.0 54 149
r 0.408837 4 2 ack 40 ------- 0 1.0 2.0 21 136
h 0.408837 2 4 tcp 1040 ------- 0 2.0 1.0 31 156
r 0.40969 4 2 ack 40 ------- 0 1.0 2.0 22 137
h 0.40969 2 4 tcp 1040 ------- 0 2.0 1.0 32 157
r 0.410542 4 2 ack 40 ------- 0 1.0 2.0 23 138
h 0.410542 2 4 tcp 1040 ------- 0 2.0 1.0 33 158
r 0.411433 4 3 tcp 1040 ------- 0 0.0 3.0 45 139
h 0.411433 3 4 ack 40 ------- 0 3.0 0.0 45 159
r 0.411667 4 2 ack 40 ------- 0 1.0 2.0 24 140
h 0.411667 2 4 tcp 1040 ------- 0 2.0 1.0 34 160
r 0.412524 4 3 tcp 1040 ------- 0 0.0 3.0 46 141
h 0.412524 3 4 ack 40 ------- 0 3.0 0.0 46 161
r 0.413377 4 3 tcp 1040 ------- 0 0.0 3.0 47 142
h 0.413377 3 4 ack 40 ------- 0 3.0 0.0 47 162
+ 0.41372 2 4 tcp 1040 ------- 0 2.0 1.0 25 150
- 0.41372 2 4 tcp 1040 ------- 0 2.0 1.0 25 150
r 0.41423 4 3 tcp 1040 ------- 0 0.0 3.0 48 143
h 0.41423 3 4 ack 40 ------- 0 3.0 0.0 48 163
+ 0.414573 2 4 tcp 1040 ------- 0 2.0 1.0 26 151
- 0.414573 2 4 tcp 1040 ------- 0 2.0 1.0 26 151
r 0.415082 4 3 tcp 1040 ------- 0 0.0 3.0 49 144
h 0.415082 3 4 ack 40 ------- 0 3.0 0.0 49 164
+ 0.415426 2 4 tcp 1040 ------- 0 2.0 1.0 27 152
- 0.415426 2 4 tcp 1040 ------- 0 2.0 1.0 27 152
r 0.415935 4 3 tcp 1040 ------- 0 0.0 3.0 50 145
h 0.415935 3 4 ack 40 ------- 0 3.0 0.0 50 165
+ 0.416278 2 4 tcp 1040 ------- 0 2.0 1.0 28 153
- 0.416278 2 4 tcp 1040 ------- 0 2.0 1.0 28 153
r 0.416788 4 3 tcp 1040 ------- 0 0.0 3.0 51 146
h 0.416788 3 4 ack 40 ------- 0 3.0 0.0 51 166
+ 0.417131 2 4 tcp 1040 ------- 0 2.0 1.0 29 154
- 0.417131 2 4 tcp 1040 ------- 0 2.0 1.0 29 154
r 0.417641 4 3 tcp 1040 ------- 0 0.0 3.0 52 147
h 0.417641 3 4 ack 40 ------- 0 3.0 0.0 52 167
+ 0.417984 2 4 tcp 1040 ------- 0 2.0 1.0 30 155
- 0.417984 2 4 tcp 1040 ------- 0 2.0 1.0 30 155
r 0.418494 4 3 tcp 1040 ------- 0 0.0 3.0 53 148
h 0.418494 3 4 ack 40 ------- 0 3.0 0.0 53 168
+ 0.418837 2 4 tcp 1040 ------- 0 2.0 1.0 31 156
- 0.418837 2 4 tcp 1040 ------- 0 2.0 1.0 31 156
r 0.419346 4 3 tcp 1040 ------- 0 0.0 3.0 54 149
h 0.419346 3 4 ack 40 ------- 0 3.0 0.0 54 169
+ 0.41969 2 4 tcp 1040 ------- 0 2.0 1.0 32 157
- 0.41969 2 4 tcp 1040 ------- 0 2.0 1.0 32 157
+ 0.420542 2 4 tcp 1040 ------- 0 2.0 1.0 33 158
- 0.420542 2 4 tcp 1040 ------- 0 2.0 1.0 33 158
+ 0.421433 3 4 ack 40 ------- 0 3.0 0.0 45 159