V -t * -v 1.0a5 -a 0
W -t * -x 100 -y 100
A -t * -n 1 -p 0 -o 0x7fffffff -c 30 -a 1
A -t * -h 1 -m 1073741823 -s 0
n -t * -a 4 -s 4 -S UP -v circle -c black -i black
n -t * -a 0 -s 0 -S UP -v circle -c black -i black
n -t * -a 5 -s 5 -S UP -v circle -c black -i black
n -t * -a 1 -s 1 -S UP -v circle -c black -i black
n -t * -a 2 -s 2 -S UP -v circle -c black -i black
n -t * -a 3 -s 3 -S UP -v circle -c black -i black
X -t * -n 6 -r 0.5Mb -D 30ms -o left
L -t * -s 6 -d 0 -o up
L -t * -s 6 -d 1 -o down
L -t * -s 6 -d 2 -o up
L -t * -s 6 -d 3 -o down
L -t * -s 6 -d 4 -o up
L -t * -s 6 -d 5 -o down
h -t 5 -s 0 -d 6 -p tcp -e 40 -c 0 -i 0 -a 0 -x {0.0 5.0 0 ------- null}
+ -t 5.03 -s 0 -d 6 -p tcp -e 40 -c 0 -i 0 -a 0 -x {0.0 5.0 0 ------- null}
- -t 5.03 -s 0 -d 6 -p tcp -e 40 -c 0 -i 0 -a 0 -x {0.0 5.0 0 ------- null}
h -t 5.03 -s 0 -d 6 -p tcp -e 40 -c 0 -i 0 -a 0 -x {0.0 5.0 -1 ------- null}
d -t 5.030004 -s 4 -d 6 -p tcp -e 40 -c 0 -i 0 -a 0 -x {0.0 5.0 0 ------- null}
d -t 5.030004 -s 3 -d 6 -p tcp -e 40 -c 0 -i 0 -a 0 -x {0.0 5.0 0 ------- null}
d -t 5.030004 -s 2 -d 6 -p tcp -e 40 -c 0 -i 0 -a 0 -x {0.0 5.0 0 ------- null}
d -t 5.030004 -s 1 -d 6 -p tcp -e 40 -c 0 -i 0 -a 0 -x {0.0 5.0 0 ------- null}
r -t 5.060004 -s 6 -d 5 -p tcp -e 40 -c 0 -i 0 -a 0 -x {0.0 5.0 0 ------- null}
h -t 5.060004 -s 5 -d 6 -p ack -e 40 -c 0 -i 1 -a 0 -x {5.0 0.0 0 ------- null}
+ -t 5.090004 -s 5 -d 6 -p ack -e 40 -c 0 -i 1 -a 0 -x {5.0 0.0 0 ------- null}
- -t 5.090004 -s 5 -d 6 -p ack -e 40 -c 0 -i 1 -a 0 -x {5.0 0.0 0 ------- null}
h -t 5.090004 -s 5 -d 6 -p ack -e 40 -c 0 -i 1 -a 0 -x {5.0 0.0 -1 ------- null}
d -t 5.090008 -s 4 -d 6 -p ack -e 40 -c 0 -i 1 -a 0 -x {5.0 0.0 0 ------- null}
d -t 5.090008 -s 3 -d 6 -p ack -e 40 -c 0 -i 1 -a 0 -x {5.0 0.0 0 ------- null}
d -t 5.090008 -s 2 -d 6 -p ack -e 40 -c 0 -i 1 -a 0 -x {5.0 0.0 0 ------- null}
d -t 5.090008 -s 1 -d 6 -p ack -e 40 -c 0 -i 1 -a 0 -x {5.0 0.0 0 ------- null}
r -t 5.120008 -s 6 -d 0 -p ack -e 40 -c 0 -i 1 -a 0 -x {5.0 0.0 0 ------- null}
h -t 5.120008 -s 0 -d 6 -p tcp -e 1040 -c 0 -i 2 -a 0 -x {0.0 5.0 1 ------- null}
h -t 5.120008 -s 0 -d 6 -p tcp -e 1040 -c 0 -i 3 -a 0 -x {0.0 5.0 2 ------- null}
+ -t 5.150008 -s 0 -d 6 -p tcp -e 1040 -c 0 -i 2 -a 0 -x {0.0 5.0 1 ------- null}
- -t 5.150008 -s 0 -d 6 -p tcp -e 1040 -c 0 -i 2 -a 0 -x {0.0 5.0 1 ------- null}
h -t 5.150008 -s 0 -d 6 -p tcp -e 1040 -c 0 -i 2 -a 0 -x {0.0 5.0 -1 ------- null}
+ -t 5.150008 -s 0 -d 6 -p tcp -e 1040 -c 0 -i 3 -a 0 -x {0.0 5.0 2 ------- null}
d -t 5.150012 -s 4 -d 6 -p tcp -e 1040 -c 0 -i 2 -a 0 -x {0.0 5.0 1 ------- null}
d -t 5.150012 -s 3 -d 6 -p tcp -e 1040 -c 0 -i 2 -a 0 -x {0.0 5.0 1 ------- null}
d -t 5.150012 -s 2 -d 6 -p tcp -e 1040 -c 0 -i 2 -a 0 -x {0.0 5.0 1 ------- null}
d -t 5.150012 -s 1 -d 6 -p tcp -e 1040 -c 0 -i 2 -a 0 -x {0.0 5.0 1 ------- null}
- -t 5.154424 -s 0 -d 6 -p tcp -e 1040 -c 0 -i 3 -a 0 -x {0.0 5.0 2 ------- null}
h -t 5.154424 -s 0 -d 6 -p tcp -e 1040 -c 0 -i 3 -a 0 -x {0.0 5.0 -1 ------- null}
d -t 5.154428 -s 4 -d 6 -p tcp -e 1040 -c 0 -i 3 -a 0 -x {0.0 5.0 2 ------- null}
d -t 5.154428 -s 3 -d 6 -p tcp -e 1040 -c 0 -i 3 -a 0 -x {0.0 5.0 2 ------- null}
d -t 5.154428 -s 2 -d 6 -p tcp -e 1040 -c 0 -i 3 -a 0 -x {0.0 5.0 2 ------- null}
d -t 5.154428 -s 1 -d 6 -p tcp -e 1040 -c 0 -i 3 -a 0 -x {0.0 5.0 2 ------- null}
r -t 5.180012 -s 6 -d 5 -p tcp -e 1040 -c 0 -i 2 -a 0 -x {0.0 5.0 1 ------- null}
h -t 5.180012 -s 5 -d 6 -p ack -e 40 -c 0 -i 4 -a 0 -x {5.0 0.0 1 ------- null}
r -t 5.184428 -s 6 -d 5 -p tcp -e 1040 -c 0 -i 3 -a 0 -x {0.0 5.0 2 ------- null}
h -t 5.184428 -s 5 -d 6 -p ack -e 40 -c 0 -i 5 -a 0 -x {5.0 0.0 2 ------- null}
+ -t 5.210012 -s 5 -d 6 -p ack -e 40 -c 0 -i 4 -a 0 -x {5.0 0.0 1 ------- null}
- -t 5.210012 -s 5 -d 6 -p ack -e 40 -c 0 -i 4 -a 0 -x {5.0 0.0 1 ------- null}
h -t 5.210012 -s 5 -d 6 -p ack -e 40 -c 0 -i 4 -a 0 -x {5.0 0.0 -1 ------- null}
d -t 5.210016 -s 4 -d 6 -p ack -e 40 -c 0 -i 4 -a 0 -x {5.0 0.0 1 ------- null}
d -t 5.210016 -s 3 -d 6 -p ack -e 40 -c 0 -i 4 -a 0 -x {5.0 0.0 1 ------- null}
d -t 5.210016 -s 2 -d 6 -p ack -e 40 -c 0 -i 4 -a 0 -x {5.0 0.0 1 ------- null}
d -t 5.210016 -s 1 -d 6 -p ack -e 40 -c 0 -i 4 -a 0 -x {5.0 0.0 1 ------- null}
+ -t 5.214428 -s 5 -d 6 -p ack -e 40 -c 0 -i 5 -a 0 -x {5.0 0.0 2 ------- null}
- -t 5.214428 -s 5 -d 6 -p ack -e 40 -c 0 -i 5 -a 0 -x {5.0 0.0 2 ------- null}
h -t 5.214428 -s 5 -d 6 -p ack -e 40 -c 0 -i 5 -a 0 -x {5.0 0.0 -1 ------- null}
d -t 5.214432 -s 4 -d 6 -p ack -e 40 -c 0 -i 5 -a 0 -x {5.0 0.0 2 ------- null}
d -t 5.214432 -s 3 -d 6 -p ack -e 40 -c 0 -i 5 -a 0 -x {5.0 0.0 2 ------- null}
d -t 5.214432 -s 2 -d 6 -p ack -e 40 -c 0 -i 5 -a 0 -x {5.0 0.0 2 ------- null}
d -t 5.214432 -s 1 -d 6 -p ack -e 40 -c 0 -i 5 -a 0 -x {5.0 0.0 2 ------- null}
r -t 5.240016 -s 6 -d 0 -p ack -e 40 -c 0 -i 4 -a 0 -x {5.0 0.0 1 ------- null}
h -t 5.240016 -s 0 -d 6 -p tcp -e 1040 -c 0 -i 6 -a 0 -x {0.0 5.0 3 ------- null}
h -t 5.240016 -s 0 -d 6 -p tcp -e 1040 -c 0 -i 7 -a 0 -x {0.0 5.0 4 ------- null}
r -t 5.244432 -s 6 -d 0 -p ack -e 40 -c 0 -i 5 -a 0 -x {5.0 0.0 2 ------- null}
h -t 5.244432 -s 0 -d 6 -p tcp -e 1040 -c 0 -i 8 -a 0 -x {0.0 5.0 5 ------- null}
h -t 5.244432 -s 0 -d 6 -p tcp -e 1040 -c 0 -i 9 -a 0 -x {0.0 5.0 6 ------- null}
+ -t 5.270016 -s 0 -d 6 -p tcp -e 1040 -c 0 -i 6 -a 0 -x {0.0 5.0 3 ------- null}
- -t 5.270016 -s 0 -d 6 -p tcp -e 1040 -c 0 -i 6 -a 0 -x {0.0 5.0 3 ------- null}
h -t 5.270016 -s 0 -d 6 -p tcp -e 1040 -c 0 -i 6 -a 0 -x {0.0 5.0 -1 ------- null}
+ -t 5.270016 -s 0 -d 6 -p tcp -e 1040 -c 0 -i 7 -a 0 -x {0.0 5.0 4 ------- null}
d -t 5.27002 -s 4 -d 6 -p tcp -e 1040 -c 0 -i 6 -a 0 -x {0.0 5.0 3 ------- null}
d -t 5.27002 -s 3 -d 6 -p tcp -e 1040 -c 0 -i 6 -a 0 -x {0.0 5.0 3 ------- null}
d -t 5.27002 -s 2 -d 6 -p tcp -e 1040 -c 0 -i 6 -a 0 -x {0.0 5.0 3 ------- null}
d -t 5.27002 -s 1 -d 6 -p tcp -e 1040 -c 0 -i 6 -a 0 -x {0.0 5.0 3 ------- null}
+ -t 5.274432 -s 0 -d 6 -p tcp -e 1040 -c 0 -i 8 -a 0 -x {0.0 5.0 5 ------- null}
+ -t 5.274432 -s 0 -d 6 -p tcp -e 1040 -c 0 -i 9 -a 0 -x {0.0 5.0 6 ------- null}
- -t 5.274432 -s 0 -d 6 -p tcp -e 1040 -c 0 -i 7 -a 0 -x {0.0 5.0 4 ------- null}
h -t 5.274432 -s 0 -d 6 -p tcp -e 1040 -c 0 -i 7 -a 0 -x {0.0 5.0 -1 ------- null}
d -t 5.274436 -s 4 -d 6 -p tcp -e 1040 -c 0 -i 7 -a 0 -x {0.0 5.0 4 ------- null}
d -t 5.274436 -s 3 -d 6 -p tcp -e 1040 -c 0 -i 7 -a 0 -x {0.0 5.0 4 ------- null}
d -t 5.274436 -s 2 -d 6 -p tcp -e 1040 -c 0 -i 7 -a 0 -x {0.0 5.0 4 ------- null}
d -t 5.274436 -s 1 -d 6 -p tcp -e 1040 -c 0 -i 7 -a 0 -x {0.0 5.0 4 ------- null}
- -t 5.278848 -s 0 -d 6 -p tcp -e 1040 -c 0 -i 8 -a 0 -x {0.0 5.0 5 ------- null}
h -t 5.278848 -s 0 -d 6 -p tcp -e 1040 -c 0 -i 8 -a 0 -x {0.0 5.0 -1 ------- null}
d -t 5.278852 -s 4 -d 6 -p tcp -e 1040 -c 0 -i 8 -a 0 -x {0.0 5.0 5 ------- null}
d -t 5.278852 -s 3 -d 6 -p tcp -e 1040 -c 0 -i 8 -a 0 -x {0.0 5.0 5 ------- null}
d -t 5.278852 -s 2 -d 6 -p tcp -e 1040 -c 0 -i 8 -a 0 -x {0.0 5.0 5 ------- null}
d -t 5.278852 -s 1 -d 6 -p tcp -e 1040 -c 0 -i 8 -a 0 -x {0.0 5.0 5 ------- null}
- -t 5.283264 -s 0 -d 6 -p tcp -e 1040 -c 0 -i 9 -a 0 -x {0.0 5.0 6 ------- null}
h -t 5.283264 -s 0 -d 6 -p tcp -e 1040 -c 0 -i 9 -a 0 -x {0.0 5.0 -1 ------- null}
d -t 5.283268 -s 4 -d 6 -p tcp -e 1040 -c 0 -i 9 -a 0 -x {0.0 5.0 6 ------- null}
d -t 5.283268 -s 3 -d 6 -p tcp -e 1040 -c 0 -i 9 -a 0 -x {0.0 5.0 6 ------- null}
d -t 5.283268 -s 2 -d 6 -p tcp -e 1040 -c 0 -i 9 -a 0 -x {0.0 5.0 6 ------- null}
d -t 5.283268 -s 1 -d 6 -p tcp -e 1040 -c 0 -i 9 -a 0 -x {0.0 5.0 6 ------- null}
r -t 5.30002 -s 6 -d 5 -p tcp -e 1040 -c 0 -i 6 -a 0 -x {0.0 5.0 3 ------- null}
h -t 5.30002 -s 5 -d 6 -p ack -e 40 -c 0 -i 10 -a 0 -x {5.0 0.0 3 ------- null}
r -t 5.304436 -s 6 -d 5 -p tcp -e 1040 -c 0 -i 7 -a 0 -x {0.0 5.0 4 ------- null}
h -t 5.304436 -s 5 -d 6 -p ack -e 40 -c 0 -i 11 -a 0 -x {5.0 0.0 4 ------- null}
r -t 5.308852 -s 6 -d 5 -p tcp -e 1040 -c 0 -i 8 -a 0 -x {0.0 5.0 5 ------- null}
h -t 5.308852 -s 5 -d 6 -p ack -e 40 -c 0 -i 12 -a 0 -x {5.0 0.0 5 ------- null}
r -t 5.313268 -s 6 -d 5 -p tcp -e 1040 -c 0 -i 9 -a 0 -x {0.0 5.0 6 ------- null}
h -t 5.313268 -s 5 -d 6 -p ack -e 40 -c 0 -i 13 -a 0 -x {5.0 0.0 6 ------- null}
+ -t 5.33002 -s 5 -d 6 -p ack -e 40 -c 0 -i 10 -a 0 -x {5.0 0.0 3 ------- null}
- -t 5.33002 -s 5 -d 6 -p ack -e 40 -c 0 -i 10 -a 0 -x {5.0 0.0 3 ------- null}
h -t 5.33002 -s 5 -d 6 -p ack -e 40 -c 0 -i 10 -a 0 -x {5.0 0.0 -1 ------- null}
d -t 5.330024 -s 4 -d 6 -p ack -e 40 -c 0 -i 10 -a 0 -x {5.0 0.0 3 ------- null}
d -t 5.330024 -s 3 -d 6 -p ack -e 40 -c 0 -i 10 -a 0 -x {5.0 0.0 3 ------- null}
d -t 5.330024 -s 2 -d 6 -p ack -e 40 -c 0 -i 10 -a 0 -x {5.0 0.0 3 ------- null}
d -t 5.330024 -s 1 -d 6 -p ack -e 40 -c 0 -i 10 -a 0 -x {5.0 0.0 3 ------- null}
+ -t 5.334436 -s 5 -d 6 -p ack -e 40 -c 0 -i 11 -a 0 -x {5.0 0.0 4 ------- null}
- -t 5.334436 -s 5 -d 6 -p ack -e 40 -c 0 -i 11 -a 0 -x {5.0 0.0 4 ------- null}
h -t 5.334436 -s 5 -d 6 -p ack -e 40 -c 0 -i 11 -a 0 -x {5.0 0.0 -1 ------- null}
d -t 5.33444 -s 4 -d 6 -p ack -e 40 -c 0 -i 11 -a 0 -x {5.0 0.0 4 ------- null}
d -t 5.33444 -s 3 -d 6 -p ack -e 40 -c 0 -i 11 -a 0 -x {5.0 0.0 4 ------- null}
d -t 5.33444 -s 2 -d 6 -p ack -e 40 -c 0 -i 11 -a 0 -x {5.0 0.0 4 ------- null}
d -t 5.33444 -s 1 -d 6 -p ack -e 40 -c 0 -i 11 -a 0 -x {5.0 0.0 4 ------- null}
+ -t 5.338852 -s 5 -d 6 -p ack -e 40 -c 0 -i 12 -a 0 -x {5.0 0.0 5 ------- null}
- -t 5.338852 -s 5 -d 6 -p ack -e 40 -c 0 -i 12 -a 0 -x {5.0 0.0 5 ------- null}
h -t 5.338852 -s 5 -d 6 -p ack -e 40 -c 0 -i 12 -a 0 -x {5.0 0.0 -1 ------- null}
d -t 5.338856 -s 4 -d 6 -p ack -e 40 -c 0 -i 12 -a 0 -x {5.0 0.0 5 ------- null}
d -t 5.338856 -s 3 -d 6 -p ack -e 40 -c 0 -i 12 -a 0 -x {5.0 0.0 5 ------- null}
d -t 5.338856 -s 2 -d 6 -p ack -e 40 -c 0 -i 12 -a 0 -x {5.0 0.0 5 ------- null}
d -t 5.338856 -s 1 -d 6 -p ack -e 40 -c 0 -i 12 -a 0 -x {5.0 0.0 5 ------- null}
+ -t 5.343268 -s 5 -d 6 -p ack -e 40 -c 0 -i 13 -a 0 -x {5.0 0.0 6 ------- null}
- -t 5.343268 -s 5 -d 6 -p ack -e 40 -c 0 -i 13 -a 0 -x {5.0 0.0 6 ------- null}
h -t 5.343268 -s 5 -d 6 -p ack -e 40 -c 0 -i 13 -a 0 -x {5.0 0.0 -1 ------- null}
d -t 5.343272 -s 4 -d 6 -p ack -e 40 -c 0 -i 13 -a 0 -x {5.0 0.0 6 ------- null}
d -t 5.343272 -s 3 -d 6 -p ack -e 40 -c 0 -i 13 -a 0 -x {5.0 0.0 6 ------- null}
d -t 5.343272 -s 2 -d 6 -p ack -e 40 -c 0 -i 13 -a 0 -x {5.0 0.0 6 ------- null}
d -t 5.343272 -s 1 -d 6 -p ack -e 40 -c 0 -i 13 -a 0 -x {5.0 0.0 6 ------- null}
r -t 5.360024 -s 6 -d 0 -p ack -e 40 -c 0 -i 10 -a 0 -x {5.0 0.0 3 ------- null}
h -t 5.360024 -s 0 -d 6 -p tcp -e 1040 -c 0 -i 14 -a 0 -x {0.0 5.0 7 ------- null}
h -t 5.360024 -s 0 -d 6 -p tcp -e 1040 -c 0 -i 15 -a 0 -x {0.0 5.0 8 ------- null}
r -t 5.36444 -s 6 -d 0 -p ack -e 40 -c 0 -i 11 -a 0 -x {5.0 0.0 4 ------- null}
h -t 5.36444 -s 0 -d 6 -p tcp -e 1040 -c 0 -i 16 -a 0 -x {0.0 5.0 9 ------- null}
h -t 5.36444 -s 0 -d 6 -p tcp -e 1040 -c 0 -i 17 -a 0 -x {0.0 5.0 10 ------- null}
r -t 5.368856 -s 6 -d 0 -p ack -e 40 -c 0 -i 12 -a 0 -x {5.0 0.0 5 ------- null}
h -t 5.368856 -s 0 -d 6 -p tcp -e 1040 -c 0 -i 18 -a 0 -x {0.0 5.0 11 ------- null}
h -t 5.368856 -s 0 -d 6 -p tcp -e 1040 -c 0 -i 19 -a 0 -x {0.0 5.0 12 ------- null}
r -t 5.373272 -s 6 -d 0 -p ack -e 40 -c 0 -i 13 -a 0 -x {5.0 0.0 6 ------- null}
h -t 5.373272 -s 0 -d 6 -p tcp -e 1040 -c 0 -i 20 -a 0 -x {0.0 5.0 13 ------- null}
h -t 5.373272 -s 0 -d 6 -p tcp -e 1040 -c 0 -i 21 -a 0 -x {0.0 5.0 14 ------- null}
+ -t 5.390024 -s 0 -d 6 -p tcp -e 1040 -c 0 -i 14 -a 0 -x {0.0 5.0 7 ------- null}
- -t 5.390024 -s 0 -d 6 -p tcp -e 1040 -c 0 -i 14 -a 0 -x {0.0 5.0 7 ------- null}
h -t 5.390024 -s 0 -d 6 -p tcp -e 1040 -c 0 -i 14 -a 0 -x {0.0 5.0 -1 ------- null}
+ -t 5.390024 -s 0 -d 6 -p tcp -e 1040 -c 0 -i 15 -a 0 -x {0.0 5.0 8 ------- null}
d -t 5.390028 -s 4 -d 6 -p tcp -e 1040 -c 0 -i 14 -a 0 -x {0.0 5.0 7 ------- null}
d -t 5.390028 -s 3 -d 6 -p tcp -e 1040 -c 0 -i 14 -a 0 -x {0.0 5.0 7 ------- null}
d -t 5.390028 -s 2 -d 6 -p tcp -e 1040 -c 0 -i 14 -a 0 -x {0.0 5.0 7 ------- null}
d -t 5.390028 -s 1 -d 6 -p tcp -e 1040 -c 0 -i 14 -a 0 -x {0.0 5.0 7 ------- null}
+ -t 5.39444 -s 0 -d 6 -p tcp -e 1040 -c 0 -i 16 -a 0 -x {0.0 5.0 9 ------- null}
+ -t 5.39444 -s 0 -d 6 -p tcp -e 1040 -c 0 -i 17 -a 0 -x {0.0 5.0 10 ------- null}
- -t 5.39444 -s 0 -d 6 -p tcp -e 1040 -c 0 -i 15 -a 0 -x {0.0 5.0 8 ------- null}
h -t 5.39444 -s 0 -d 6 -p tcp -e 1040 -c 0 -i 15 -a 0 -x {0.0 5.0 -1 ------- null}
d -t 5.394444 -s 4 -d 6 -p tcp -e 1040 -c 0 -i 15 -a 0 -x {0.0 5.0 8 ------- null}
d -t 5.394444 -s 3 -d 6 -p tcp -e 1040 -c 0 -i 15 -a 0 -x {0.0 5.0 8 ------- null}
d -t 5.394444 -s 2 -d 6 -p tcp -e 1040 -c 0 -i 15 -a 0 -x {0.0 5.0 8 ------- null}
d -t 5.394444 -s 1 -d 6 -p tcp -e 1040 -c 0 -i 15 -a 0 -x {0.0 5.0 8 ------- null}
+ -t 5.398856 -s 0 -d 6 -p tcp -e 1040 -c 0 -i 18 -a 0 -x {0.0 5.0 11 ------- null}
+ -t 5.398856 -s 0 -d 6 -p tcp -e 1040 -c 0 -i 19 -a 0 -x {0.0 5.0 12 ------- null}
- -t 5.398856 -s 0 -d 6 -p tcp -e 1040 -c 0 -i 16 -a 0 -x {0.0 5.0 9 ------- null}
h -t 5.398856 -s 0 -d 6 -p tcp -e 1040 -c 0 -i 16 -a 0 -x {0.0 5.0 -1 ------- null}
d -t 5.39886 -s 4 -d 6 -p tcp -e 1040 -c 0 -i 16 -a 0 -x {0.0 5.0 9 ------- null}
d -t 5.39886 -s 3 -d 6 -p tcp -e 1040 -c 0 -i 16 -a 0 -x {0.0 5.0 9 ------- null}
d -t 5.39886 -s 2 -d 6 -p tcp -e 1040 -c 0 -i 16 -a 0 -x {0.0 5.0 9 ------- null}
d -t 5.39886 -s 1 -d 6 -p tcp -e 1040 -c 0 -i 16 -a 0 -x {0.0 5.0 9 ------- null}
+ -t 5.403272 -s 0 -d 6 -p tcp -e 1040 -c 0 -i 20 -a 0 -x {0.0 5.0 13 ------- null}
+ -t 5.403272 -s 0 -d 6 -p tcp -e 1040 -c 0 -i 21 -a 0 -x {0.0 5.0 14 ------- null}
- -t 5.403272 -s 0 -d 6 -p tcp -e 1040 -c 0 -i 17 -a 0 -x {0.0 5.0 10 ------- null}
h -t 5.403272 -s 0 -d 6 -p tcp -e 1040 -c 0 -i 17 -a 0 -x {0.0 5.0 -1 ------- null}
d -t 5.403276 -s 4 -d 6 -p tcp -e 1040 -c 0 -i 17 -a 0 -x {0.0 5.0 10 ------- null}
d -t 5.403276 -s 3 -d 6 -p tcp -e 1040 -c 0 -i 17 -a 0 -x {0.0 5.0 10 ------- null}
d -t 5.403276 -s 2 -d 6 -p tcp -e 1040 -c 0 -i 17 -a 0 -x {0.0 5.0 10 ------- null}
d -t 5.403276 -s 1 -d 6 -p tcp -e 1040 -c 0 -i 17 -a 0 -x {0.0 5.0 10 ------- null}
- -t 5.407688 -s 0 -d 6 -p tcp -e 1040 -c 0 -i 18 -a 0 -x {0.0 5.0 11 ------- null}
h -t 5.407688 -s 0 -d 6 -p tcp -e 1040 -c 0 -i 18 -a 0 -x {0.0 5.0 -1 ------- null}
d -t 5.407692 -s 4 -d 6 -p tcp -e 1040 -c 0 -i 18 -a 0 -x {0.0 5.0 11 ------- null}
d -t 5.407692 -s 3 -d 6 -p tcp -e 1040 -c 0 -i 18 -a 0 -x {0.0 5.0 11 ------- null}
d -t 5.407692 -s 2 -d 6 -p tcp -e 1040 -c 0 -i 18 -a 0 -x {0.0 5.0 11 ------- null}
d -t 5.407692 -s 1 -d 6 -p tcp -e 1040 -c 0 -i 18 -a 0 -x {0.0 5.0 11 ------- null}
- -t 5.412104 -s 0 -d 6 -p tcp -e 1040 -c 0 -i 19 -a 0 -x {0.0 5.0 12 ------- null}
h -t 5.412104 -s 0 -d 6 -p tcp -e 1040 -c 0 -i 19 -a 0 -x {0.0 5.0 -1 ------- null}
d -t 5.412108 -s 4 -d 6 -p tcp -e 1040 -c 0 -i 19 -a 0 -x {0.0 5.0 12 ------- null}
d -t 5.412108 -s 3 -d 6 -p tcp -e 1040 -c 0 -i 19 -a 0 -x {0.0 5.0 12 ------- null}
d -t 5.412108 -s 2 -d 6 -p tcp -e 1040 -c 0 -i 19 -a 0 -x {0.0 5.0 12 ------- null}
d -t 5.412108 -s 1 -d 6 -p tcp -e 1040 -c 0 -i 19 -a 0 -x {0.0 5.0 12 ------- null}
- -t 5.41652 -s 0 -d 6 -p tcp -e 1040 -c 0 -i 20 -a 0 -x {0.0 5.0 13 ------- null}
h -t 5.41652 -s 0 -d 6 -p tcp -e 1040 -c 0 -i 20 -a 0 -x {0.0 5.0 -1 ------- null}
d -t 5.416524 -s 4 -d 6 -p tcp -e 1040 -c 0 -i 20 -a 0 -x {0.0 5.0 13 ------- null}
d -t 5.416524 -s 3 -d 6 -p tcp -e 1040 -c 0 -i 20 -a 0 -x {0.0 5.0 13 ------- null}
d -t 5.416524 -s 2 -d 6 -p tcp -e 1040 -c 0 -i 20 -a 0 -x {0.0 5.0 13 ------- null}
d -t 5.416524 -s 1 -d 6 -p tcp -e 1040 -c 0 -i 20 -a 0 -x {0.0 5.0 13 ------- null}
r -t 5.420028 -s 6 -d 5 -p tcp -e 1040 -c 0 -i 14 -a 0 -x {0.0 5.0 7 ------- null}
h -t 5.420028 -s 5 -d 6 -p ack -e 40 -c 0 -i 22 -a 0 -x {5.0 0.0 7 ------- null}
- -t 5.420936 -s 0 -d 6 -p tcp -e 1040 -c 0 -i 21 -a 0 -x {0.0 5.0 14 ------- null}
h -t 5.420936 -s 0 -d 6 -p tcp -e 1040 -c 0 -i 21 -a 0 -x {0.0 5.0 -1 ------- null}
d -t 5.42094 -s 4 -d 6 -p tcp -e 1040 -c 0 -i 21 -a 0 -x {0.0 5.0 14 ------- null}
d -t 5.42094 -s 3 -d 6 -p tcp -e 1040 -c 0 -i 21 -a 0 -x {0.0 5.0 14 ------- null}
d -t 5.42094 -s 2 -d 6 -p tcp -e 1040 -c 0 -i 21 -a 0 -x {0.0 5.0 14 ------- null}
d -t 5.42094 -s 1 -d 6 -p tcp -e 1040 -c 0 -i 21 -a 0 -x {0.0 5.0 14 ------- null}
r -t 5.424444 -s 6 -d 5 -p tcp -e 1040 -c 0 -i 15 -a 0 -x {0.0 5.0 8 ------- null}
h -t 5.424444 -s 5 -d 6 -p ack -e 40 -c 0 -i 23 -a 0 -x {5.0 0.0 8 ------- null}
r -t 5.42886 -s 6 -d 5 -p tcp -e 1040 -c 0 -i 16 -a 0 -x {0.0 5.0 9 ------- null}
h -t 5.42886 -s 5 -d 6 -p ack -e 40 -c 0 -i 24 -a 0 -x {5.0 0.0 9 ------- null}
r -t 5.433276 -s 6 -d 5 -p tcp -e 1040 -c 0 -i 17 -a 0 -x {0.0 5.0 10 ------- null}
h -t 5.433276 -s 5 -d 6 -p ack -e 40 -c 0 -i 25 -a 0 -x {5.0 0.0 10 ------- null}
r -t 5.437692 -s 6 -d 5 -p tcp -e 1040 -c 0 -i 18 -a 0 -x {0.0 5.0 11 ------- null}
h -t 5.437692 -s 5 -d 6 -p ack -e 40 -c 0 -i 26 -a 0 -x {5.0 0.0 11 ------- null}
r -t 5.442108 -s 6 -d 5 -p tcp -e 1040 -c 0 -i 19 -a 0 -x {0.0 5.0 12 ------- null}
h -t 5.442108 -s 5 -d 6 -p ack -e 40 -c 0 -i 27 -a 0 -x {5.0 0.0 12 ------- null}
r -t 5.446524 -s 6 -d 5 -p tcp -e 1040 -c 0 -i 20 -a 0 -x {0.0 5.0 13 ------- null}
h -t 5.446524 -s 5 -d 6 -p ack -e 40 -c 0 -i 28 -a 0 -x {5.0 0.0 13 ------- null}
+ -t 5.450028 -s 5 -d 6 -p ack -e 40 -c 0 -i 22 -a 0 -x {5.0 0.0 7 ------- null}
- -t 5.450028 -s 5 -d 6 -p ack -e 40 -c 0 -i 22 -a 0 -x {5.0 0.0 7 ------- null}
h -t 5.450028 -s 5 -d 6 -p ack -e 40 -c 0 -i 22 -a 0 -x {5.0 0.0 -1 ------- null}
d -t 5.450032 -s 4 -d 6 -p ack -e 40 -c 0 -i 22 -a 0 -x {5.0 0.0 7 ------- null}
d -t 5.450032 -s 3 -d 6 -p ack -e 40 -c 0 -i 22 -a 0 -x {5.0 0.0 7 ------- null}
d -t 5.450032 -s 2 -d 6 -p ack -e 40 -c 0 -i 22 -a 0 -x {5.0 0.0 7 ------- null}
d -t 5.450032 -s 1 -d 6 -p ack -e 40 -c 0 -i 22 -a 0 -x {5.0 0.0 7 ------- null}
r -t 5.45094 -s 6 -d 5 -p tcp -e 1040 -c 0 -i 21 -a 0 -x {0.0 5.0 14 ------- null}
h -t 5.45094 -s 5 -d 6 -p ack -e 40 -c 0 -i 29 -a 0 -x {5.0 0.0 14 ------- null}
+ -t 5.454444 -s 5 -d 6 -p ack -e 40 -c 0 -i 23 -a 0 -x {5.0 0.0 8 ------- null}
- -t 5.454444 -s 5 -d 6 -p ack -e 40 -c 0 -i 23 -a 0 -x {5.0 0.0 8 ------- null}
h -t 5.454444 -s 5 -d 6 -p ack -e 40 -c 0 -i 23 -a 0 -x {5.0 0.0 -1 ------- null}
d -t 5.454448 -s 4 -d 6 -p ack -e 40 -c 0 -i 23 -a 0 -x {5.0 0.0 8 ------- null}
d -t 5.454448 -s 3 -d 6 -p ack -e 40 -c 0 -i 23 -a 0 -x {5.0 0.0 8 ------- null}
d -t 5.454448 -s 2 -d 6 -p ack -e 40 -c 0 -i 23 -a 0 -x {5.0 0.0 8 ------- null}
d -t 5.454448 -s 1 -d 6 -p ack -e 40 -c 0 -i 23 -a 0 -x {5.0 0.0 8 ------- null}
+ -t 5.45886 -s 5 -d 6 -p ack -e 40 -c 0 -i 24 -a 0 -x {5.0 0.0 9 ------- null}
- -t 5.45886 -s 5 -d 6 -p ack -e 40 -c 0 -i 24 -a 0 -x {5.0 0.0 9 ------- null}
h -t 5.45886 -s 5 -d 6 -p ack -e 40 -c 0 -i 24 -a 0 -x {5.0 0.0 -1 ------- null}
d -t 5.458864 -s 4 -d 6 -p ack -e 40 -c 0 -i 24 -a 0 -x {5.0 0.0 9 ------- null}
d -t 5.458864 -s 3 -d 6 -p ack -e 40 -c 0 -i 24 -a 0 -x {5.0 0.0 9 ------- null}
d -t 5.458864 -s 2 -d 6 -p ack -e 40 -c 0 -i 24 -a 0 -x {5.0 0.0 9 ------- null}
d -t 5.458864 -s 1 -d 6 -p ack -e 40 -c 0 -i 24 -a 0 -x {5.0 0.0 9 ------- null}
+ -t 5.463276 -s 5 -d 6 -p ack -e 40 -c 0 -i 25 -a 0 -x {5.0 0.0 10 ------- null}
- -t 5.463276 -s 5 -d 6 -p ack -e 40 -c 0 -i 25 -a 0 -x {5.0 0.0 10 ------- null}
h -t 5.463276 -s 5 -d 6 -p ack -e 40 -c 0 -i 25 -a 0 -x {5.0 0.0 -1 ------- null}
d -t 5.46328 -s 4 -d 6 -p ack -e 40 -c 0 -i 25 -a 0 -x {5.0 0.0 10 ------- null}
d -t 5.46328 -s 3 -d 6 -p ack -e 40 -c 0 -i 25 -a 0 -x {5.0 0.0 10 ------- null}
d -t 5.46328 -s 2 -d 6 -p ack -e 40 -c 0 -i 25 -a 0 -x {5.0 0.0 10 ------- null}
d -t 5.46328 -s 1 -d 6 -p ack -e 40 -c 0 -i 25 -a 0 -x {5.0 0.0 10 ------- null}
+ -t 5.467692 -s 5 -d 6 -p ack -e 40 -c 0 -i 26 -a 0 -x {5.0 0.0 11 ------- null}
- -t 5.467692 -s 5 -d 6 -p ack -e 40 -c 0 -i 26 -a 0 -x {5.0 0.0 11 ------- null}
h -t 5.467692 -s 5 -d 6 -p ack -e 40 -c 0 -i 26 -a 0 -x {5.0 0.0 -1 ------- null}
d -t 5.467696 -s 4 -d 6 -p ack -e 40 -c 0 -i 26 -a 0 -x {5.0 0.0 11 ------- null}
d -t 5.467696 -s 3 -d 6 -p ack -e 40 -c 0 -i 26 -a 0 -x {5.0 0.0 11 ------- null}
d -t 5.467696 -s 2 -d 6 -p ack -e 40 -c 0 -i 26 -a 0 -x {5.0 0.0 11 ------- null}
d -t 5.467696 -s 1 -d 6 -p ack -e 40 -c 0 -i 26 -a 0 -x {5.0 0.0 11 ------- null}
+ -t 5.472108 -s 5 -d 6 -p ack -e 40 -c 0 -i 27 -a 0 -x {5.0 0.0 12 ------- null}
- -t 5.472108 -s 5 -d 6 -p ack -e 40 -c 0 -i 27 -a 0 -x {5.0 0.0 12 ------- null}
h -t 5.472108 -s 5 -d 6 -p ack -e 40 -c 0 -i 27 -a 0 -x {5.0 0.0 -1 ------- null}
d -t 5.472112 -s 4 -d 6 -p ack -e 40 -c 0 -i 27 -a 0 -x {5.0 0.0 12 ------- null}
d -t 5.472112 -s 3 -d 6 -p ack -e 40 -c 0 -i 27 -a 0 -x {5.0 0.0 12 ------- null}
d -t 5.472112 -s 2 -d 6 -p ack -e 40 -c 0 -i 27 -a 0 -x {5.0 0.0 12 ------- null}
d -t 5.472112 -s 1 -d 6 -p ack -e 40 -c 0 -i 27 -a 0 -x {5.0 0.0 12 ------- null}
+ -t 5.476524 -s 5 -d 6 -p ack -e 40 -c 0 -i 28 -a 0 -x {5.0 0.0 13 ------- null}
- -t 5.476524 -s 5 -d 6 -p ack -e 40 -c 0 -i 28 -a 0 -x {5.0 0.0 13 ------- null}
h -t 5.476524 -s 5 -d 6 -p ack -e 40 -c 0 -i 28 -a 0 -x {5.0 0.0 -1 ------- null}
d -t 5.476528 -s 4 -d 6 -p ack -e 40 -c 0 -i 28 -a 0 -x {5.0 0.0 13 ------- null}
d -t 5.476528 -s 3 -d 6 -p ack -e 40 -c 0 -i 28 -a 0 -x {5.0 0.0 13 ------- null}
d -t 5.476528 -s 2 -d 6 -p ack -e 40 -c 0 -i 28 -a 0 -x {5.0 0.0 13 ------- null}
d -t 5.476528 -s 1 -d 6 -p ack -e 40 -c 0 -i 28 -a 0 -x {5.0 0.0 13 ------- null}
r -t 5.480032 -s 6 -d 0 -p ack -e 40 -c 0 -i 22 -a 0 -x {5.0 0.0 7 ------- null}
h -t 5.480032 -s 0 -d 6 -p tcp -e 1040 -c 0 -i 30 -a 0 -x {0.0 5.0 15 ------- null}
h -t 5.480032 -s 0 -d 6 -p tcp -e 1040 -c 0 -i 31 -a 0 -x {0.0 5.0 16 ------- null}
+ -t 5.48094 -s 5 -d 6 -p ack -e 40 -c 0 -i 29 -a 0 -x {5.0 0.0 14 ------- null}
- -t 5.48094 -s 5 -d 6 -p ack -e 40 -c 0 -i 29 -a 0 -x {5.0 0.0 14 ------- null}
h -t 5.48094 -s 5 -d 6 -p ack -e 40 -c 0 -i 29 -a 0 -x {5.0 0.0 -1 ------- null}
d -t 5.480944 -s 4 -d 6 -p ack -e 40 -c 0 -i 29 -a 0 -x {5.0 0.0 14 ------- null}
d -t 5.480944 -s 3 -d 6 -p ack -e 40 -c 0 -i 29 -a 0 -x {5.0 0.0 14 ------- null}
d -t 5.480944 -s 2 -d 6 -p ack -e 40 -c 0 -i 29 -a 0 -x {5.0 0.0 14 ------- null}
d -t 5.480944 -s 1 -d 6 -p ack -e 40 -c 0 -i 29 -a 0 -x {5.0 0.0 14 ------- null}
r -t 5.484448 -s 6 -d 0 -p ack -e 40 -c 0 -i 23 -a 0 -x {5.0 0.0 8 ------- null}
h -t 5.484448 -s 0 -d 6 -p tcp -e 1040 -c 0 -i 32 -a 0 -x {0.0 5.0 17 ------- null}
h -t 5.484448 -s 0 -d 6 -p tcp -e 1040 -c 0 -i 33 -a 0 -x {0.0 5.0 18 ------- null}
r -t 5.488864 -s 6 -d 0 -p ack -e 40 -c 0 -i 24 -a 0 -x {5.0 0.0 9 ------- null}
h -t 5.488864 -s 0 -d 6 -p tcp -e 1040 -c 0 -i 34 -a 0 -x {0.0 5.0 19 ------- null}
h -t 5.488864 -s 0 -d 6 -p tcp -e 1040 -c 0 -i 35 -a 0 -x {0.0 5.0 20 ------- null}
r -t 5.49328 -s 6 -d 0 -p ack -e 40 -c 0 -i 25 -a 0 -x {5.0 0.0 10 ------- null}
h -t 5.49328 -s 0 -d 6 -p tcp -e 1040 -c 0 -i 36 -a 0 -x {0.0 5.0 21 ------- null}
h -t 5.49328 -s 0 -d 6 -p tcp -e 1040 -c 0 -i 37 -a 0 -x {0.0 5.0 22 ------- null}
r -t 5.497696 -s 6 -d 0 -p ack -e 40 -c 0 -i 26 -a 0 -x {5.0 0.0 11 ------- null}
h -t 5.497696 -s 0 -d 6 -p tcp -e 1040 -c 0 -i 38 -a 0 -x {0.0 5.0 23 ------- null}
h -t 5.497696 -s 0 -d 6 -p tcp -e 1040 -c 0 -i 39 -a 0 -x {0.0 5.0 24 ------- null}
r -t 5.502112 -s 6 -d 0 -p ack -e 40 -c 0 -i 27 -a 0 -x {5.0 0.0 12 ------- null}
h -t 5.502112 -s 0 -d 6 -p tcp -e 1040 -c 0 -i 40 -a 0 -x {0.0 5.0 25 ------- null}
h -t 5.502112 -s 0 -d 6 -p tcp -e 1040 -c 0 -i 41 -a 0 -x {0.0 5.0 26 ------- null}
r -t 5.506528 -s 6 -d 0 -p ack -e 40 -c 0 -i 28 -a 0 -x {5.0 0.0 13 ------- null}
h -t 5.506528 -s 0 -d 6 -p tcp -e 1040 -c 0 -i 42 -a 0 -x {0.0 5.0 27 ------- null}
h -t 5.506528 -s 0 -d 6 -p tcp -e 1040 -c 0 -i 43 -a 0 -x {0.0 5.0 28 ------- null}
+ -t 5.510032 -s 0 -d 6 -p tcp -e 1040 -c 0 -i 30 -a 0 -x {0.0 5.0 15 ------- null}
- -t 5.510032 -s 0 -d 6 -p tcp -e 1040 -c 0 -i 30 -a 0 -x {0.0 5.0 15 ------- null}
h -t 5.510032 -s 0 -d 6 -p tcp -e 1040 -c 0 -i 30 -a 0 -x {0.0 5.0 -1 ------- null}
+ -t 5.510032 -s 0 -d 6 -p tcp -e 1040 -c 0 -i 31 -a 0 -x {0.0 5.0 16 ------- null}
d -t 5.510036 -s 4 -d 6 -p tcp -e 1040 -c 0 -i 30 -a 0 -x {0.0 5.0 15 ------- null}
d -t 5.510036 -s 3 -d 6 -p tcp -e 1040 -c 0 -i 30 -a 0 -x {0.0 5.0 15 ------- null}
d -t 5.510036 -s 2 -d 6 -p tcp -e 1040 -c 0 -i 30 -a 0 -x {0.0 5.0 15 ------- null}
d -t 5.510036 -s 1 -d 6 -p tcp -e 1040 -c 0 -i 30 -a 0 -x {0.0 5.0 15 ------- null}
r -t 5.510944 -s 6 -d 0 -p ack -e 40 -c 0 -i 29 -a 0 -x {5.0 0.0 14 ------- null}
h -t 5.510944 -s 0 -d 6 -p tcp -e 1040 -c 0 -i 44 -a 0 -x {0.0 5.0 29 ------- null}
h -t 5.510944 -s 0 -d 6 -p tcp -e 1040 -c 0 -i 45 -a 0 -x {0.0 5.0 30 ------- null}
+ -t 5.514448 -s 0 -d 6 -p tcp -e 1040 -c 0 -i 32 -a 0 -x {0.0 5.0 17 ------- null}
+ -t 5.514448 -s 0 -d 6 -p tcp -e 1040 -c 0 -i 33 -a 0 -x {0.0 5.0 18 ------- null}
- -t 5.514448 -s 0 -d 6 -p tcp -e 1040 -c 0 -i 31 -a 0 -x {0.0 5.0 16 ------- null}
h -t 5.514448 -s 0 -d 6 -p tcp -e 1040 -c 0 -i 31 -a 0 -x {0.0 5.0 -1 ------- null}
d -t 5.514452 -s 4 -d 6 -p tcp -e 1040 -c 0 -i 31 -a 0 -x {0.0 5.0 16 ------- null}
d -t 5.514452 -s 3 -d 6 -p tcp -e 1040 -c 0 -i 31 -a 0 -x {0.0 5.0 16 ------- null}
d -t 5.514452 -s 2 -d 6 -p tcp -e 1040 -c 0 -i 31 -a 0 -x {0.0 5.0 16 ------- null}
d -t 5.514452 -s 1 -d 6 -p tcp -e 1040 -c 0 -i 31 -a 0 -x {0.0 5.0 16 ------- null}
+ -t 5.518864 -s 0 -d 6 -p tcp -e 1040 -c 0 -i 34 -a 0 -x {0.0 5.0 19 ------- null}
+ -t 5.518864 -s 0 -d 6 -p tcp -e 1040 -c 0 -i 35 -a 0 -x {0.0 5.0 20 ------- null}
- -t 5.518864 -s 0 -d 6 -p tcp -e 1040 -c 0 -i 32 -a 0 -x {0.0 5.0 17 ------- null}
h -t 5.518864 -s 0 -d 6 -p tcp -e 1040 -c 0 -i 32 -a 0 -x {0.0 5.0 -1 ------- null}
d -t 5.518868 -s 4 -d 6 -p tcp -e 1040 -c 0 -i 32 -a 0 -x {0.0 5.0 17 ------- null}
d -t 5.518868 -s 3 -d 6 -p tcp -e 1040 -c 0 -i 32 -a 0 -x {0.0 5.0 17 ------- null}
d -t 5.518868 -s 2 -d 6 -p tcp -e 1040 -c 0 -i 32 -a 0 -x {0.0 5.0 17 ------- null}
d -t 5.518868 -s 1 -d 6 -p tcp -e 1040 -c 0 -i 32 -a 0 -x {0.0 5.0 17 ------- null}
+ -t 5.52328 -s 0 -d 6 -p tcp -e 1040 -c 0 -i 36 -a 0 -x {0.0 5.0 21 ------- null}
+ -t 5.52328 -s 0 -d 6 -p tcp -e 1040 -c 0 -i 37 -a 0 -x {0.0 5.0 22 ------- null}
- -t 5.52328 -s 0 -d 6 -p tcp -e 1040 -c 0 -i 33 -a 0 -x {0.0 5.0 18 ------- null}
h -t 5.52328 -s 0 -d 6 -p tcp -e 1040 -c 0 -i 33 -a 0 -x {0.0 5.0 -1 ------- null}
d -t 5.523284 -s 4 -d 6 -p tcp -e 1040 -c 0 -i 33 -a 0 -x {0.0 5.0 18 ------- null}
d -t 5.523284 -s 3 -d 6 -p tcp -e 1040 -c 0 -i 33 -a 0 -x {0.0 5.0 18 ------- null}
d -t 5.523284 -s 2 -d 6 -p tcp -e 1040 -c 0 -i 33 -a 0 -x {0.0 5.0 18 ------- null}
d -t 5.523284 -s 1 -d 6 -p tcp -e 1040 -c 0 -i 33 -a 0 -x {0.0 5.0 18 ------- null}
+ -t 5.527696 -s 0 -d 6 -p tcp -e 1040 -c 0 -i 38 -a 0 -x {0.0 5.0 23 ------- null}
+ -t 5.527696 -s 0 -d 6 -p tcp -e 1040 -c 0 -i 39 -a 0 -x {0.0 5.0 24 ------- null}
- -t 5.527696 -s 0 -d 6 -p tcp -e 1040 -c 0 -i 34 -a 0 -x {0.0 5.0 19 ------- null}
h -t 5.527696 -s 0 -d 6 -p tcp -e 1040 -c 0 -i 34 -a 0 -x {0.0 5.0 -1 ------- null}
d -t 5.5277 -s 4 -d 6 -p tcp -e 1040 -c 0 -i 34 -a 0 -x {0.0 5.0 19 ------- null}
d -t 5.5277 -s 3 -d 6 -p tcp -e 1040 -c 0 -i 34 -a 0 -x {0.0 5.0 19 ------- null}
d -t 5.5277 -s 2 -d 6 -p tcp -e 1040 -c 0 -i 34 -a 0 -x {0.0 5.0 19 ------- null}
d -t 5.5277 -s 1 -d 6 -p tcp -e 1040 -c 0 -i 34 -a 0 -x {0.0 5.0 19 ------- null}
+ -t 5.532112 -s 0 -d 6 -p tcp -e 1040 -c 0 -i 40 -a 0 -x {0.0 5.0 25 ------- null}
+ -t 5.532112 -s 0 -d 6 -p tcp -e 1040 -c 0 -i 41 -a 0 -x {0.0 5.0 26 ------- null}
- -t 5.532112 -s 0 -d 6 -p tcp -e 1040 -c 0 -i 35 -a 0 -x {0.0 5.0 20 ------- null}
h -t 5.532112 -s 0 -d 6 -p tcp -e 1040 -c 0 -i 35 -a 0 -x {0.0 5.0 -1 ------- null}
d -t 5.532116 -s 4 -d 6 -p tcp -e 1040 -c 0 -i 35 -a 0 -x {0.0 5.0 20 ------- null}
d -t 5.532116 -s 3 -d 6 -p tcp -e 1040 -c 0 -i 35 -a 0 -x {0.0 5.0 20 ------- null}
d -t 5.532116 -s 2 -d 6 -p tcp -e 1040 -c 0 -i 35 -a 0 -x {0.0 5.0 20 ------- null}
d -t 5.532116 -s 1 -d 6 -p tcp -e 1040 -c 0 -i 35 -a 0 -x {0.0 5.0 20 ------- null}
+ -t 5.536528 -s 0 -d 6 -p tcp -e 1040 -c 0 -i 42 -a 0 -x {0.0 5.0 27 ------- null}
+ -t 5.536528 -s 0 -d 6 -p tcp -e 1040 -c 0 -i 43 -a 0 -x {0.0 5.0 28 ------- null}
- -t 5.536528 -s 0 -d 6 -p tcp -e 1040 -c 0 -i 36 -a 0 -x {0.0 5.0 21 ------- null}
h -t 5.536528 -s 0 -d 6 -p tcp -e 1040 -c 0 -i 36 -a 0 -x {0.0 5.0 -1 ------- null}
d -t 5.536532 -s 4 -d 6 -p tcp -e 1040 -c 0 -i 36 -a 0 -x {0.0 5.0 21 ------- null}
d -t 5.536532 -s 3 -d 6 -p tcp -e 1040 -c 0 -i 36 -a 0 -x {0.0 5.0 21 ------- null}
d -t 5.536532 -s 2 -d 6 -p tcp -e 1040 -c 0 -i 36 -a 0 -x {0.0 5.0 21 ------- null}
d -t 5.536532 -s 1 -d 6 -p tcp -e 1040 -c 0 -i 36 -a 0 -x {0.0 5.0 21 ------- null}
r -t 5.540036 -s 6 -d 5 -p tcp -e 1040 -c 0 -i 30 -a 0 -x {0.0 5.0 15 ------- null}
h -t 5.540036 -s 5 -d 6 -p ack -e 40 -c 0 -i 46 -a 0 -x {5.0 0.0 15 ------- null}
+ -t 5.540944 -s 0 -d 6 -p tcp -e 1040 -c 0 -i 44 -a 0 -x {0.0 5.0 29 ------- null}
+ -t 5.540944 -s 0 -d 6 -p tcp -e 1040 -c 0 -i 45 -a 0 -x {0.0 5.0 30 ------- null}
- -t 5.540944 -s 0 -d 6 -p tcp -e 1040 -c 0 -i 37 -a 0 -x {0.0 5.0 22 ------- null}
h -t 5.540944 -s 0 -d 6 -p tcp -e 1040 -c 0 -i 37 -a 0 -x {0.0 5.0 -1 ------- null}
d -t 5.540948 -s 4 -d 6 -p tcp -e 1040 -c 0 -i 37 -a 0 -x {0.0 5.0 22 ------- null}
d -t 5.540948 -s 3 -d 6 -p tcp -e 1040 -c 0 -i 37 -a 0 -x {0.0 5.0 22 ------- null}
d -t 5.540948 -s 2 -d 6 -p tcp -e 1040 -c 0 -i 37 -a 0 -x {0.0 5.0 22 ------- null}
d -t 5.540948 -s 1 -d 6 -p tcp -e 1040 -c 0 -i 37 -a 0 -x {0.0 5.0 22 ------- null}
r -t 5.544452 -s 6 -d 5 -p tcp -e 1040 -c 0 -i 31 -a 0 -x {0.0 5.0 16 ------- null}
h -t 5.544452 -s 5 -d 6 -p ack -e 40 -c 0 -i 47 -a 0 -x {5.0 0.0 16 ------- null}
- -t 5.54536 -s 0 -d 6 -p tcp -e 1040 -c 0 -i 38 -a 0 -x {0.0 5.0 23 ------- null}
h -t 5.54536 -s 0 -d 6 -p tcp -e 1040 -c 0 -i 38 -a 0 -x {0.0 5.0 -1 ------- null}
d -t 5.545364 -s 4 -d 6 -p tcp -e 1040 -c 0 -i 38 -a 0 -x {0.0 5.0 23 ------- null}