h 5 0 6 tcp 40 ------- 0 0.0 5.0 0 0
+ 5.03 0 6 tcp 40 ------- 0 0.0 5.0 0 0
- 5.03 0 6 tcp 40 ------- 0 0.0 5.0 0 0
d 5.030004 4 6 tcp 40 ------- 0 0.0 5.0 0 0
d 5.030004 3 6 tcp 40 ------- 0 0.0 5.0 0 0
d 5.030004 2 6 tcp 40 ------- 0 0.0 5.0 0 0
d 5.030004 1 6 tcp 40 ------- 0 0.0 5.0 0 0
r 5.060004 6 5 tcp 40 ------- 0 0.0 5.0 0 0
h 5.060004 5 6 ack 40 ------- 0 5.0 0.0 0 1
+ 5.090004 5 6 ack 40 ------- 0 5.0 0.0 0 1
- 5.090004 5 6 ack 40 ------- 0 5.0 0.0 0 1
d 5.090008 4 6 ack 40 ------- 0 5.0 0.0 0 1
d 5.090008 3 6 ack 40 ------- 0 5.0 0.0 0 1
d 5.090008 2 6 ack 40 ------- 0 5.0 0.0 0 1
d 5.090008 1 6 ack 40 ------- 0 5.0 0.0 0 1
r 5.120008 6 0 ack 40 ------- 0 5.0 0.0 0 1
h 5.120008 0 6 tcp 1040 ------- 0 0.0 5.0 1 2
h 5.120008 0 6 tcp 1040 ------- 0 0.0 5.0 2 3
+ 5.150008 0 6 tcp 1040 ------- 0 0.0 5.0 1 2
- 5.150008 0 6 tcp 1040 ------- 0 0.0 5.0 1 2
+ 5.150008 0 6 tcp 1040 ------- 0 0.0 5.0 2 3
d 5.150012 4 6 tcp 1040 ------- 0 0.0 5.0 1 2
d 5.150012 3 6 tcp 1040 ------- 0 0.0 5.0 1 2
d 5.150012 2 6 tcp 1040 ------- 0 0.0 5.0 1 2
d 5.150012 1 6 tcp 1040 ------- 0 0.0 5.0 1 2
- 5.154424 0 6 tcp 1040 ------- 0 0.0 5.0 2 3
d 5.154428 4 6 tcp 1040 ------- 0 0.0 5.0 2 3
d 5.154428 3 6 tcp 1040 ------- 0 0.0 5.0 2 3
d 5.154428 2 6 tcp 1040 ------- 0 0.0 5.0 2 3
d 5.154428 1 6 tcp 1040 ------- 0 0.0 5.0 2 3
r 5.180012 6 5 tcp 1040 ------- 0 0.0 5.0 1 2
h 5.180012 5 6 ack 40 ------- 0 5.0 0.0 1 4
r 5.184428 6 5 tcp 1040 ------- 0 0.0 5.0 2 3
h 5.184428 5 6 ack 40 ------- 0 5.0 0.0 2 5
+ 5.210012 5 6 ack 40 ------- 0 5.0 0.0 1 4
- 5.210012 5 6 ack 40 ------- 0 5.0 0.0 1 4
d 5.210016 4 6 ack 40 ------- 0 5.0 0.0 1 4
d 5.210016 3 6 ack 40 ------- 0 5.0 0.0 1 4
d 5.210016 2 6 ack 40 ------- 0 5.0 0.0 1 4
d 5.210016 1 6 ack 40 ------- 0 5.0 0.0 1 4
+ 5.214428 5 6 ack 40 ------- 0 5.0 0.0 2 5
- 5.214428 5 6 ack 40 ------- 0 5.0 0.0 2 5
d 5.214432 4 6 ack 40 ------- 0 5.0 0.0 2 5
d 5.214432 3 6 ack 40 ------- 0 5.0 0.0 2 5
d 5.214432 2 6 ack 40 ------- 0 5.0 0.0 2 5
d 5.214432 1 6 ack 40 ------- 0 5.0 0.0 2 5
r 5.240016 6 0 ack 40 ------- 0 5.0 0.0 1 4
h 5.240016 0 6 tcp 1040 ------- 0 0.0 5.0 3 6
h 5.240016 0 6 tcp 1040 ------- 0 0.0 5.0 4 7
r 5.244432 6 0 ack 40 ------- 0 5.0 0.0 2 5
h 5.244432 0 6 tcp 1040 ------- 0 0.0 5.0 5 8
h 5.244432 0 6 tcp 1040 ------- 0 0.0 5.0 6 9
+ 5.270016 0 6 tcp 1040 ------- 0 0.0 5.0 3 6
- 5.270016 0 6 tcp 1040 ------- 0 0.0 5.0 3 6
+ 5.270016 0 6 tcp 1040 ------- 0 0.0 5.0 4 7
d 5.27002 4 6 tcp 1040 ------- 0 0.0 5.0 3 6
d 5.27002 3 6 tcp 1040 ------- 0 0.0 5.0 3 6
d 5.27002 2 6 tcp 1040 ------- 0 0.0 5.0 3 6
d 5.27002 1 6 tcp 1040 ------- 0 0.0 5.0 3 6
+ 5.274432 0 6 tcp 1040 ------- 0 0.0 5.0 5 8
+ 5.274432 0 6 tcp 1040 ------- 0 0.0 5.0 6 9
- 5.274432 0 6 tcp 1040 ------- 0 0.0 5.0 4 7
d 5.274436 4 6 tcp 1040 ------- 0 0.0 5.0 4 7
d 5.274436 3 6 tcp 1040 ------- 0 0.0 5.0 4 7
d 5.274436 2 6 tcp 1040 ------- 0 0.0 5.0 4 7
d 5.274436 1 6 tcp 1040 ------- 0 0.0 5.0 4 7
- 5.278848 0 6 tcp 1040 ------- 0 0.0 5.0 5 8
d 5.278852 4 6 tcp 1040 ------- 0 0.0 5.0 5 8
d 5.278852 3 6 tcp 1040 ------- 0 0.0 5.0 5 8
d 5.278852 2 6 tcp 1040 ------- 0 0.0 5.0 5 8
d 5.278852 1 6 tcp 1040 ------- 0 0.0 5.0 5 8
- 5.283264 0 6 tcp 1040 ------- 0 0.0 5.0 6 9
d 5.283268 4 6 tcp 1040 ------- 0 0.0 5.0 6 9
d 5.283268 3 6 tcp 1040 ------- 0 0.0 5.0 6 9
d 5.283268 2 6 tcp 1040 ------- 0 0.0 5.0 6 9
d 5.283268 1 6 tcp 1040 ------- 0 0.0 5.0 6 9
r 5.30002 6 5 tcp 1040 ------- 0 0.0 5.0 3 6
h 5.30002 5 6 ack 40 ------- 0 5.0 0.0 3 10
r 5.304436 6 5 tcp 1040 ------- 0 0.0 5.0 4 7
h 5.304436 5 6 ack 40 ------- 0 5.0 0.0 4 11
r 5.308852 6 5 tcp 1040 ------- 0 0.0 5.0 5 8
h 5.308852 5 6 ack 40 ------- 0 5.0 0.0 5 12
r 5.313268 6 5 tcp 1040 ------- 0 0.0 5.0 6 9
h 5.313268 5 6 ack 40 ------- 0 5.0 0.0 6 13
+ 5.33002 5 6 ack 40 ------- 0 5.0 0.0 3 10
- 5.33002 5 6 ack 40 ------- 0 5.0 0.0 3 10
d 5.330024 4 6 ack 40 ------- 0 5.0 0.0 3 10
d 5.330024 3 6 ack 40 ------- 0 5.0 0.0 3 10
d 5.330024 2 6 ack 40 ------- 0 5.0 0.0 3 10
d 5.330024 1 6 ack 40 ------- 0 5.0 0.0 3 10
+ 5.334436 5 6 ack 40 ------- 0 5.0 0.0 4 11
- 5.334436 5 6 ack 40 ------- 0 5.0 0.0 4 11
d 5.33444 4 6 ack 40 ------- 0 5.0 0.0 4 11
d 5.33444 3 6 ack 40 ------- 0 5.0 0.0 4 11
d 5.33444 2 6 ack 40 ------- 0 5.0 0.0 4 11
d 5.33444 1 6 ack 40 ------- 0 5.0 0.0 4 11
+ 5.338852 5 6 ack 40 ------- 0 5.0 0.0 5 12
- 5.338852 5 6 ack 40 ------- 0 5.0 0.0 5 12
d 5.338856 4 6 ack 40 ------- 0 5.0 0.0 5 12
d 5.338856 3 6 ack 40 ------- 0 5.0 0.0 5 12
d 5.338856 2 6 ack 40 ------- 0 5.0 0.0 5 12
d 5.338856 1 6 ack 40 ------- 0 5.0 0.0 5 12
+ 5.343268 5 6 ack 40 ------- 0 5.0 0.0 6 13
- 5.343268 5 6 ack 40 ------- 0 5.0 0.0 6 13
d 5.343272 4 6 ack 40 ------- 0 5.0 0.0 6 13
d 5.343272 3 6 ack 40 ------- 0 5.0 0.0 6 13
d 5.343272 2 6 ack 40 ------- 0 5.0 0.0 6 13
d 5.343272 1 6 ack 40 ------- 0 5.0 0.0 6 13
r 5.360024 6 0 ack 40 ------- 0 5.0 0.0 3 10
h 5.360024 0 6 tcp 1040 ------- 0 0.0 5.0 7 14
h 5.360024 0 6 tcp 1040 ------- 0 0.0 5.0 8 15
r 5.36444 6 0 ack 40 ------- 0 5.0 0.0 4 11
h 5.36444 0 6 tcp 1040 ------- 0 0.0 5.0 9 16
h 5.36444 0 6 tcp 1040 ------- 0 0.0 5.0 10 17
r 5.368856 6 0 ack 40 ------- 0 5.0 0.0 5 12
h 5.368856 0 6 tcp 1040 ------- 0 0.0 5.0 11 18
h 5.368856 0 6 tcp 1040 ------- 0 0.0 5.0 12 19
r 5.373272 6 0 ack 40 ------- 0 5.0 0.0 6 13
h 5.373272 0 6 tcp 1040 ------- 0 0.0 5.0 13 20
h 5.373272 0 6 tcp 1040 ------- 0 0.0 5.0 14 21
+ 5.390024 0 6 tcp 1040 ------- 0 0.0 5.0 7 14
- 5.390024 0 6 tcp 1040 ------- 0 0.0 5.0 7 14
+ 5.390024 0 6 tcp 1040 ------- 0 0.0 5.0 8 15
d 5.390028 4 6 tcp 1040 ------- 0 0.0 5.0 7 14
d 5.390028 3 6 tcp 1040 ------- 0 0.0 5.0 7 14
d 5.390028 2 6 tcp 1040 ------- 0 0.0 5.0 7 14
d 5.390028 1 6 tcp 1040 ------- 0 0.0 5.0 7 14
+ 5.39444 0 6 tcp 1040 ------- 0 0.0 5.0 9 16
+ 5.39444 0 6 tcp 1040 ------- 0 0.0 5.0 10 17
- 5.39444 0 6 tcp 1040 ------- 0 0.0 5.0 8 15
d 5.394444 4 6 tcp 1040 ------- 0 0.0 5.0 8 15
d 5.394444 3 6 tcp 1040 ------- 0 0.0 5.0 8 15
d 5.394444 2 6 tcp 1040 ------- 0 0.0 5.0 8 15
d 5.394444 1 6 tcp 1040 ------- 0 0.0 5.0 8 15
+ 5.398856 0 6 tcp 1040 ------- 0 0.0 5.0 11 18
+ 5.398856 0 6 tcp 1040 ------- 0 0.0 5.0 12 19
- 5.398856 0 6 tcp 1040 ------- 0 0.0 5.0 9 16
d 5.39886 4 6 tcp 1040 ------- 0 0.0 5.0 9 16
d 5.39886 3 6 tcp 1040 ------- 0 0.0 5.0 9 16
d 5.39886 2 6 tcp 1040 ------- 0 0.0 5.0 9 16
d 5.39886 1 6 tcp 1040 ------- 0 0.0 5.0 9 16
+ 5.403272 0 6 tcp 1040 ------- 0 0.0 5.0 13 20
+ 5.403272 0 6 tcp 1040 ------- 0 0.0 5.0 14 21
- 5.403272 0 6 tcp 1040 ------- 0 0.0 5.0 10 17
d 5.403276 4 6 tcp 1040 ------- 0 0.0 5.0 10 17
d 5.403276 3 6 tcp 1040 ------- 0 0.0 5.0 10 17
d 5.403276 2 6 tcp 1040 ------- 0 0.0 5.0 10 17
d 5.403276 1 6 tcp 1040 ------- 0 0.0 5.0 10 17
- 5.407688 0 6 tcp 1040 ------- 0 0.0 5.0 11 18
d 5.407692 4 6 tcp 1040 ------- 0 0.0 5.0 11 18
d 5.407692 3 6 tcp 1040 ------- 0 0.0 5.0 11 18
d 5.407692 2 6 tcp 1040 ------- 0 0.0 5.0 11 18
d 5.407692 1 6 tcp 1040 ------- 0 0.0 5.0 11 18
- 5.412104 0 6 tcp 1040 ------- 0 0.0 5.0 12 19
d 5.412108 4 6 tcp 1040 ------- 0 0.0 5.0 12 19
d 5.412108 3 6 tcp 1040 ------- 0 0.0 5.0 12 19
d 5.412108 2 6 tcp 1040 ------- 0 0.0 5.0 12 19
d 5.412108 1 6 tcp 1040 ------- 0 0.0 5.0 12 19
- 5.41652 0 6 tcp 1040 ------- 0 0.0 5.0 13 20
d 5.416524 4 6 tcp 1040 ------- 0 0.0 5.0 13 20
d 5.416524 3 6 tcp 1040 ------- 0 0.0 5.0 13 20
d 5.416524 2 6 tcp 1040 ------- 0 0.0 5.0 13 20
d 5.416524 1 6 tcp 1040 ------- 0 0.0 5.0 13 20
r 5.420028 6 5 tcp 1040 ------- 0 0.0 5.0 7 14
h 5.420028 5 6 ack 40 ------- 0 5.0 0.0 7 22
- 5.420936 0 6 tcp 1040 ------- 0 0.0 5.0 14 21
d 5.42094 4 6 tcp 1040 ------- 0 0.0 5.0 14 21
d 5.42094 3 6 tcp 1040 ------- 0 0.0 5.0 14 21
d 5.42094 2 6 tcp 1040 ------- 0 0.0 5.0 14 21
d 5.42094 1 6 tcp 1040 ------- 0 0.0 5.0 14 21
r 5.424444 6 5 tcp 1040 ------- 0 0.0 5.0 8 15
h 5.424444 5 6 ack 40 ------- 0 5.0 0.0 8 23
r 5.42886 6 5 tcp 1040 ------- 0 0.0 5.0 9 16
h 5.42886 5 6 ack 40 ------- 0 5.0 0.0 9 24
r 5.433276 6 5 tcp 1040 ------- 0 0.0 5.0 10 17
h 5.433276 5 6 ack 40 ------- 0 5.0 0.0 10 25
r 5.437692 6 5 tcp 1040 ------- 0 0.0 5.0 11 18
h 5.437692 5 6 ack 40 ------- 0 5.0 0.0 11 26
r 5.442108 6 5 tcp 1040 ------- 0 0.0 5.0 12 19
h 5.442108 5 6 ack 40 ------- 0 5.0 0.0 12 27
r 5.446524 6 5 tcp 1040 ------- 0 0.0 5.0 13 20
h 5.446524 5 6 ack 40 ------- 0 5.0 0.0 13 28
+ 5.450028 5 6 ack 40 ------- 0 5.0 0.0 7 22
- 5.450028 5 6 ack 40 ------- 0 5.0 0.0 7 22
d 5.450032 4 6 ack 40 ------- 0 5.0 0.0 7 22
d 5.450032 3 6 ack 40 ------- 0 5.0 0.0 7 22
d 5.450032 2 6 ack 40 ------- 0 5.0 0.0 7 22
d 5.450032 1 6 ack 40 ------- 0 5.0 0.0 7 22
r 5.45094 6 5 tcp 1040 ------- 0 0.0 5.0 14 21
h 5.45094 5 6 ack 40 ------- 0 5.0 0.0 14 29
+ 5.454444 5 6 ack 40 ------- 0 5.0 0.0 8 23
- 5.454444 5 6 ack 40 ------- 0 5.0 0.0 8 23
d 5.454448 4 6 ack 40 ------- 0 5.0 0.0 8 23
d 5.454448 3 6 ack 40 ------- 0 5.0 0.0 8 23
d 5.454448 2 6 ack 40 ------- 0 5.0 0.0 8 23
d 5.454448 1 6 ack 40 ------- 0 5.0 0.0 8 23
+ 5.45886 5 6 ack 40 ------- 0 5.0 0.0 9 24
- 5.45886 5 6 ack 40 ------- 0 5.0 0.0 9 24
d 5.458864 4 6 ack 40 ------- 0 5.0 0.0 9 24
d 5.458864 3 6 ack 40 ------- 0 5.0 0.0 9 24
d 5.458864 2 6 ack 40 ------- 0 5.0 0.0 9 24
d 5.458864 1 6 ack 40 ------- 0 5.0 0.0 9 24
+ 5.463276 5 6 ack 40 ------- 0 5.0 0.0 10 25
- 5.463276 5 6 ack 40 ------- 0 5.0 0.0 10 25
d 5.46328 4 6 ack 40 ------- 0 5.0 0.0 10 25
d 5.46328 3 6 ack 40 ------- 0 5.0 0.0 10 25
d 5.46328 2 6 ack 40 ------- 0 5.0 0.0 10 25
d 5.46328 1 6 ack 40 ------- 0 5.0 0.0 10 25
+ 5.467692 5 6 ack 40 ------- 0 5.0 0.0 11 26
- 5.467692 5 6 ack 40 ------- 0 5.0 0.0 11 26
d 5.467696 4 6 ack 40 ------- 0 5.0 0.0 11 26
d 5.467696 3 6 ack 40 ------- 0 5.0 0.0 11 26
d 5.467696 2 6 ack 40 ------- 0 5.0 0.0 11 26
d 5.467696 1 6 ack 40 ------- 0 5.0 0.0 11 26
+ 5.472108 5 6 ack 40 ------- 0 5.0 0.0 12 27
- 5.472108 5 6 ack 40 ------- 0 5.0 0.0 12 27
d 5.472112 4 6 ack 40 ------- 0 5.0 0.0 12 27
d 5.472112 3 6 ack 40 ------- 0 5.0 0.0 12 27
d 5.472112 2 6 ack 40 ------- 0 5.0 0.0 12 27
d 5.472112 1 6 ack 40 ------- 0 5.0 0.0 12 27
+ 5.476524 5 6 ack 40 ------- 0 5.0 0.0 13 28
- 5.476524 5 6 ack 40 ------- 0 5.0 0.0 13 28
d 5.476528 4 6 ack 40 ------- 0 5.0 0.0 13 28
d 5.476528 3 6 ack 40 ------- 0 5.0 0.0 13 28
d 5.476528 2 6 ack 40 ------- 0 5.0 0.0 13 28
d 5.476528 1 6 ack 40 ------- 0 5.0 0.0 13 28
r 5.480032 6 0 ack 40 ------- 0 5.0 0.0 7 22
h 5.480032 0 6 tcp 1040 ------- 0 0.0 5.0 15 30
h 5.480032 0 6 tcp 1040 ------- 0 0.0 5.0 16 31
+ 5.48094 5 6 ack 40 ------- 0 5.0 0.0 14 29
- 5.48094 5 6 ack 40 ------- 0 5.0 0.0 14 29
d 5.480944 4 6 ack 40 ------- 0 5.0 0.0 14 29
d 5.480944 3 6 ack 40 ------- 0 5.0 0.0 14 29
d 5.480944 2 6 ack 40 ------- 0 5.0 0.0 14 29
d 5.480944 1 6 ack 40 ------- 0 5.0 0.0 14 29
r 5.484448 6 0 ack 40 ------- 0 5.0 0.0 8 23
h 5.484448 0 6 tcp 1040 ------- 0 0.0 5.0 17 32
h 5.484448 0 6 tcp 1040 ------- 0 0.0 5.0 18 33
r 5.488864 6 0 ack 40 ------- 0 5.0 0.0 9 24
h 5.488864 0 6 tcp 1040 ------- 0 0.0 5.0 19 34
h 5.488864 0 6 tcp 1040 ------- 0 0.0 5.0 20 35
r 5.49328 6 0 ack 40 ------- 0 5.0 0.0 10 25
h 5.49328 0 6 tcp 1040 ------- 0 0.0 5.0 21 36
h 5.49328 0 6 tcp 1040 ------- 0 0.0 5.0 22 37
r 5.497696 6 0 ack 40 ------- 0 5.0 0.0 11 26
h 5.497696 0 6 tcp 1040 ------- 0 0.0 5.0 23 38
h 5.497696 0 6 tcp 1040 ------- 0 0.0 5.0 24 39
r 5.502112 6 0 ack 40 ------- 0 5.0 0.0 12 27
h 5.502112 0 6 tcp 1040 ------- 0 0.0 5.0 25 40
h 5.502112 0 6 tcp 1040 ------- 0 0.0 5.0 26 41
r 5.506528 6 0 ack 40 ------- 0 5.0 0.0 13 28
h 5.506528 0 6 tcp 1040 ------- 0 0.0 5.0 27 42
h 5.506528 0 6 tcp 1040 ------- 0 0.0 5.0 28 43
+ 5.510032 0 6 tcp 1040 ------- 0 0.0 5.0 15 30
- 5.510032 0 6 tcp 1040 ------- 0 0.0 5.0 15 30
+ 5.510032 0 6 tcp 1040 ------- 0 0.0 5.0 16 31
d 5.510036 4 6 tcp 1040 ------- 0 0.0 5.0 15 30
d 5.510036 3 6 tcp 1040 ------- 0 0.0 5.0 15 30
d 5.510036 2 6 tcp 1040 ------- 0 0.0 5.0 15 30
d 5.510036 1 6 tcp 1040 ------- 0 0.0 5.0 15 30
r 5.510944 6 0 ack 40 ------- 0 5.0 0.0 14 29
h 5.510944 0 6 tcp 1040 ------- 0 0.0 5.0 29 44
h 5.510944 0 6 tcp 1040 ------- 0 0.0 5.0 30 45
+ 5.514448 0 6 tcp 1040 ------- 0 0.0 5.0 17 32
+ 5.514448 0 6 tcp 1040 ------- 0 0.0 5.0 18 33
- 5.514448 0 6 tcp 1040 ------- 0 0.0 5.0 16 31
d 5.514452 4 6 tcp 1040 ------- 0 0.0 5.0 16 31
d 5.514452 3 6 tcp 1040 ------- 0 0.0 5.0 16 31
d 5.514452 2 6 tcp 1040 ------- 0 0.0 5.0 16 31
d 5.514452 1 6 tcp 1040 ------- 0 0.0 5.0 16 31
+ 5.518864 0 6 tcp 1040 ------- 0 0.0 5.0 19 34
+ 5.518864 0 6 tcp 1040 ------- 0 0.0 5.0 20 35
- 5.518864 0 6 tcp 1040 ------- 0 0.0 5.0 17 32
d 5.518868 4 6 tcp 1040 ------- 0 0.0 5.0 17 32
d 5.518868 3 6 tcp 1040 ------- 0 0.0 5.0 17 32
d 5.518868 2 6 tcp 1040 ------- 0 0.0 5.0 17 32
d 5.518868 1 6 tcp 1040 ------- 0 0.0 5.0 17 32
+ 5.52328 0 6 tcp 1040 ------- 0 0.0 5.0 21 36
+ 5.52328 0 6 tcp 1040 ------- 0 0.0 5.0 22 37
- 5.52328 0 6 tcp 1040 ------- 0 0.0 5.0 18 33
d 5.523284 4 6 tcp 1040 ------- 0 0.0 5.0 18 33
d 5.523284 3 6 tcp 1040 ------- 0 0.0 5.0 18 33
d 5.523284 2 6 tcp 1040 ------- 0 0.0 5.0 18 33
d 5.523284 1 6 tcp 1040 ------- 0 0.0 5.0 18 33
+ 5.527696 0 6 tcp 1040 ------- 0 0.0 5.0 23 38
+ 5.527696 0 6 tcp 1040 ------- 0 0.0 5.0 24 39
- 5.527696 0 6 tcp 1040 ------- 0 0.0 5.0 19 34
d 5.5277 4 6 tcp 1040 ------- 0 0.0 5.0 19 34
d 5.5277 3 6 tcp 1040 ------- 0 0.0 5.0 19 34
d 5.5277 2 6 tcp 1040 ------- 0 0.0 5.0 19 34
d 5.5277 1 6 tcp 1040 ------- 0 0.0 5.0 19 34
+ 5.532112 0 6 tcp 1040 ------- 0 0.0 5.0 25 40
+ 5.532112 0 6 tcp 1040 ------- 0 0.0 5.0 26 41
- 5.532112 0 6 tcp 1040 ------- 0 0.0 5.0 20 35
d 5.532116 4 6 tcp 1040 ------- 0 0.0 5.0 20 35
d 5.532116 3 6 tcp 1040 ------- 0 0.0 5.0 20 35
d 5.532116 2 6 tcp 1040 ------- 0 0.0 5.0 20 35
d 5.532116 1 6 tcp 1040 ------- 0 0.0 5.0 20 35
+ 5.536528 0 6 tcp 1040 ------- 0 0.0 5.0 27 42
+ 5.536528 0 6 tcp 1040 ------- 0 0.0 5.0 28 43
- 5.536528 0 6 tcp 1040 ------- 0 0.0 5.0 21 36
d 5.536532 4 6 tcp 1040 ------- 0 0.0 5.0 21 36
d 5.536532 3 6 tcp 1040 ------- 0 0.0 5.0 21 36
d 5.536532 2 6 tcp 1040 ------- 0 0.0 5.0 21 36
d 5.536532 1 6 tcp 1040 ------- 0 0.0 5.0 21 36
r 5.540036 6 5 tcp 1040 ------- 0 0.0 5.0 15 30
h 5.540036 5 6 ack 40 ------- 0 5.0 0.0 15 46
+ 5.540944 0 6 tcp 1040 ------- 0 0.0 5.0 29 44
+ 5.540944 0 6 tcp 1040 ------- 0 0.0 5.0 30 45
- 5.540944 0 6 tcp 1040 ------- 0 0.0 5.0 22 37
d 5.540948 4 6 tcp 1040 ------- 0 0.0 5.0 22 37
d 5.540948 3 6 tcp 1040 ------- 0 0.0 5.0 22 37
d 5.540948 2 6 tcp 1040 ------- 0 0.0 5.0 22 37
d 5.540948 1 6 tcp 1040 ------- 0 0.0 5.0 22 37
r 5.544452 6 5 tcp 1040 ------- 0 0.0 5.0 16 31
h 5.544452 5 6 ack 40 ------- 0 5.0 0.0 16 47
- 5.54536 0 6 tcp 1040 ------- 0 0.0 5.0 23 38
d 5.545364 4 6 tcp 1040 ------- 0 0.0 5.0 23 38
d 5.545364 3 6 tcp 1040 ------- 0 0.0 5.0 23 38
d 5.545364 2 6 tcp 1040 ------- 0 0.0 5.0 23 38
d 5.545364 1 6 tcp 1040 ------- 0 0.0 5.0 23 38
r 5.548868 6 5 tcp 1040 ------- 0 0.0 5.0 17 32
h 5.548868 5 6 ack 40 ------- 0 5.0 0.0 17 48
- 5.549776 0 6 tcp 1040 ------- 0 0.0 5.0 24 39
d 5.54978 4 6 tcp 1040 ------- 0 0.0 5.0 24 39
d 5.54978 3 6 tcp 1040 ------- 0 0.0 5.0 24 39
d 5.54978 2 6 tcp 1040 ------- 0 0.0 5.0 24 39
d 5.54978 1 6 tcp 1040 ------- 0 0.0 5.0 24 39
r 5.553284 6 5 tcp 1040 ------- 0 0.0 5.0 18 33
h 5.553284 5 6 ack 40 ------- 0 5.0 0.0 18 49
- 5.554192 0 6 tcp 1040 ------- 0 0.0 5.0 25 40
d 5.554196 4 6 tcp 1040 ------- 0 0.0 5.0 25 40
d 5.554196 3 6 tcp 1040 ------- 0 0.0 5.0 25 40
d 5.554196 2 6 tcp 1040 ------- 0 0.0 5.0 25 40
d 5.554196 1 6 tcp 1040 ------- 0 0.0 5.0 25 40
r 5.5577 6 5 tcp 1040 ------- 0 0.0 5.0 19 34
h 5.5577 5 6 ack 40 ------- 0 5.0 0.0 19 50
- 5.558608 0 6 tcp 1040 ------- 0 0.0 5.0 26 41
d 5.558612 4 6 tcp 1040 ------- 0 0.0 5.0 26 41
d 5.558612 3 6 tcp 1040 ------- 0 0.0 5.0 26 41
d 5.558612 2 6 tcp 1040 ------- 0 0.0 5.0 26 41
d 5.558612 1 6 tcp 1040 ------- 0 0.0 5.0 26 41
r 5.562116 6 5 tcp 1040 ------- 0 0.0 5.0 20 35
h 5.562116 5 6 ack 40 ------- 0 5.0 0.0 20 51
- 5.563024 0 6 tcp 1040 ------- 0 0.0 5.0 27 42
d 5.563028 4 6 tcp 1040 ------- 0 0.0 5.0 27 42
d 5.563028 3 6 tcp 1040 ------- 0 0.0 5.0 27 42
d 5.563028 2 6 tcp 1040 ------- 0 0.0 5.0 27 42
d 5.563028 1 6 tcp 1040 ------- 0 0.0 5.0 27 42
r 5.566532 6 5 tcp 1040 ------- 0 0.0 5.0 21 36
h 5.566532 5 6 ack 40 ------- 0 5.0 0.0 21 52
- 5.56744 0 6 tcp 1040 ------- 0 0.0 5.0 28 43
d 5.567444 4 6 tcp 1040 ------- 0 0.0 5.0 28 43
d 5.567444 3 6 tcp 1040 ------- 0 0.0 5.0 28 43
d 5.567444 2 6 tcp 1040 ------- 0 0.0 5.0 28 43
d 5.567444 1 6 tcp 1040 ------- 0 0.0 5.0 28 43
+ 5.570036 5 6 ack 40 ------- 0 5.0 0.0 15 46
- 5.570036 5 6 ack 40 ------- 0 5.0 0.0 15 46
d 5.57004 4 6 ack 40 ------- 0 5.0 0.0 15 46
d 5.57004 3 6 ack 40 ------- 0 5.0 0.0 15 46
d 5.57004 2 6 ack 40 ------- 0 5.0 0.0 15 46
d 5.57004 1 6 ack 40 ------- 0 5.0 0.0 15 46
r 5.570948 6 5 tcp 1040 ------- 0 0.0 5.0 22 37
h 5.570948 5 6 ack 40 ------- 0 5.0 0.0 22 53
- 5.571856 0 6 tcp 1040 ------- 0 0.0 5.0 29 44
d 5.57186 4 6 tcp 1040 ------- 0 0.0 5.0 29 44
d 5.57186 3 6 tcp 1040 ------- 0 0.0 5.0 29 44
d 5.57186 2 6 tcp 1040 ------- 0 0.0 5.0 29 44
d 5.57186 1 6 tcp 1040 ------- 0 0.0 5.0 29 44
+ 5.574452 5 6 ack 40 ------- 0 5.0 0.0 16 47
- 5.574452 5 6 ack 40 ------- 0 5.0 0.0 16 47
d 5.574456 4 6 ack 40 ------- 0 5.0 0.0 16 47
d 5.574456 3 6 ack 40 ------- 0 5.0 0.0 16 47
d 5.574456 2 6 ack 40 ------- 0 5.0 0.0 16 47
d 5.574456 1 6 ack 40 ------- 0 5.0 0.0 16 47
r 5.575364 6 5 tcp 1040 ------- 0 0.0 5.0 23 38
h 5.575364 5 6 ack 40 ------- 0 5.0 0.0 23 54
- 5.576272 0 6 tcp 1040 ------- 0 0.0 5.0 30 45
d 5.576276 4 6 tcp 1040 ------- 0 0.0 5.0 30 45
d 5.576276 3 6 tcp 1040 ------- 0 0.0 5.0 30 45
d 5.576276 2 6 tcp 1040 ------- 0 0.0 5.0 30 45
d 5.576276 1 6 tcp 1040 ------- 0 0.0 5.0 30 45
+ 5.578868 5 6 ack 40 ------- 0 5.0 0.0 17 48
- 5.578868 5 6 ack 40 ------- 0 5.0 0.0 17 48
d 5.578872 4 6 ack 40 ------- 0 5.0 0.0 17 48
d 5.578872 3 6 ack 40 ------- 0 5.0 0.0 17 48
d 5.578872 2 6 ack 40 ------- 0 5.0 0.0 17 48
d 5.578872 1 6 ack 40 ------- 0 5.0 0.0 17 48
r 5.57978 6 5 tcp 1040 ------- 0 0.0 5.0 24 39
h 5.57978 5 6 ack 40 ------- 0 5.0 0.0 24 55
+ 5.583284 5 6 ack 40 ------- 0 5.0 0.0 18 49
- 5.583284 5 6 ack 40 ------- 0 5.0 0.0 18 49
d 5.583288 4 6 ack 40 ------- 0 5.0 0.0 18 49
d 5.583288 3 6 ack 40 ------- 0 5.0 0.0 18 49
d 5.583288 2 6 ack 40 ------- 0 5.0 0.0 18 49
d 5.583288 1 6 ack 40 ------- 0 5.0 0.0 18 49
r 5.584196 6 5 tcp 1040 ------- 0 0.0 5.0 25 40
h 5.584196 5 6 ack 40 ------- 0 5.0 0.0 25 56
+ 5.5877 5 6 ack 40 ------- 0 5.0 0.0 19 50
- 5.5877 5 6 ack 40 ------- 0 5.0 0.0 19 50
d 5.587704 4 6 ack 40 ------- 0 5.0 0.0 19 50
d 5.587704 3 6 ack 40 ------- 0 5.0 0.0 19 50
d 5.587704 2 6 ack 40 ------- 0 5.0 0.0 19 50
d 5.587704 1 6 ack 40 ------- 0 5.0 0.0 19 50
r 5.588612 6 5 tcp 1040 ------- 0 0.0 5.0 26 41
h 5.588612 5 6 ack 40 ------- 0 5.0 0.0 26 57
+ 5.592116 5 6 ack 40 ------- 0 5.0 0.0 20 51
- 5.592116 5 6 ack 40 ------- 0 5.0 0.0 20 51
d 5.59212 4 6 ack 40 ------- 0 5.0 0.0 20 51
d 5.59212 3 6 ack 40 ------- 0 5.0 0.0 20 51
d 5.59212 2 6 ack 40 ------- 0 5.0 0.0 20 51
d 5.59212 1 6 ack 40 ------- 0 5.0 0.0 20 51
r 5.593028 6 5 tcp 1040 ------- 0 0.0 5.0 27 42
h 5.593028 5 6 ack 40 ------- 0 5.0 0.0 27 58
+ 5.596532 5 6 ack 40 ------- 0 5.0 0.0 21 52
- 5.596532 5 6 ack 40 ------- 0 5.0 0.0 21 52
d 5.596536 4 6 ack 40 ------- 0 5.0 0.0 21 52
d 5.596536 3 6 ack 40 ------- 0 5.0 0.0 21 52
d 5.596536 2 6 ack 40 ------- 0 5.0 0.0 21 52
d 5.596536 1 6 ack 40 ------- 0 5.0 0.0 21 52
r 5.597444 6 5 tcp 1040 ------- 0 0.0 5.0 28 43
h 5.597444 5 6 ack 40 ------- 0 5.0 0.0 28 59
r 5.60004 6 0 ack 40 ------- 0 5.0 0.0 15 46
h 5.60004 0 6 tcp 1040 ------- 0 0.0 5.0 31 60
h 5.60004 0 6 tcp 1040 ------- 0 0.0 5.0 32 61
+ 5.600948 5 6 ack 40 ------- 0 5.0 0.0 22 53
- 5.600948 5 6 ack 40 ------- 0 5.0 0.0 22 53
d 5.600952 4 6 ack 40 ------- 0 5.0 0.0 22 53
d 5.600952 3 6 ack 40 ------- 0 5.0 0.0 22 53
d 5.600952 2 6 ack 40 ------- 0 5.0 0.0 22 53
d 5.600952 1 6 ack 40 ------- 0 5.0 0.0 22 53
r 5.60186 6 5 tcp 1040 ------- 0 0.0 5.0 29 44
h 5.60186 5 6 ack 40 ------- 0 5.0 0.0 29 62
r 5.604456 6 0 ack 40 ------- 0 5.0 0.0 16 47
h 5.604456 0 6 tcp 1040 ------- 0 0.0 5.0 33 63
h 5.604456 0 6 tcp 1040 ------- 0 0.0 5.0 34 64
+ 5.605364 5 6 ack 40 ------- 0 5.0 0.0 23 54
- 5.605364 5 6 ack 40 ------- 0 5.0 0.0 23 54
d 5.605368 4 6 ack 40 ------- 0 5.0 0.0 23 54
d 5.605368 3 6 ack 40 ------- 0 5.0 0.0 23 54
d 5.605368 2 6 ack 40 ------- 0 5.0 0.0 23 54
d 5.605368 1 6 ack 40 ------- 0 5.0 0.0 23 54
r 5.606276 6 5 tcp 1040 ------- 0 0.0 5.0 30 45
h 5.606276 5 6 ack 40 ------- 0 5.0 0.0 30 65
r 5.608872 6 0 ack 40 ------- 0 5.0 0.0 17 48
h 5.608872 0 6 tcp 1040 ------- 0 0.0 5.0 35 66
h 5.608872 0 6 tcp 1040 ------- 0 0.0 5.0 36 67
+ 5.60978 5 6 ack 40 ------- 0 5.0 0.0 24 55
- 5.60978 5 6 ack 40 ------- 0 5.0 0.0 24 55
d 5.609784 4 6 ack 40 ------- 0 5.0 0.0 24 55
d 5.609784 3 6 ack 40 ------- 0 5.0 0.0 24 55
d 5.609784 2 6 ack 40 ------- 0 5.0 0.0 24 55
d 5.609784 1 6 ack 40 ------- 0 5.0 0.0 24 55
r 5.613288 6 0 ack 40 ------- 0 5.0 0.0 18 49
h 5.613288 0 6 tcp 1040 ------- 0 0.0 5.0 37 68
h 5.613288 0 6 tcp 1040 ------- 0 0.0 5.0 38 69
+ 5.614196 5 6 ack 40 ------- 0 5.0 0.0 25 56
- 5.614196 5 6 ack 40 ------- 0 5.0 0.0 25 56
d 5.6142 4 6 ack 40 ------- 0 5.0 0.0 25 56
d 5.6142 3 6 ack 40 ------- 0 5.0 0.0 25 56
d 5.6142 2 6 ack 40 ------- 0 5.0 0.0 25 56
d 5.6142 1 6 ack 40 ------- 0 5.0 0.0 25 56
r 5.617704 6 0 ack 40 ------- 0 5.0 0.0 19 50
h 5.617704 0 6 tcp 1040 ------- 0 0.0 5.0 39 70
+ 5.618612 5 6 ack 40 ------- 0 5.0 0.0 26 57
- 5.618612 5 6 ack 40 ------- 0 5.0 0.0 26 57
d 5.618616 4 6 ack 40 ------- 0 5.0 0.0 26 57
d 5.618616 3 6 ack 40 ------- 0 5.0 0.0 26 57
d 5.618616 2 6 ack 40 ------- 0 5.0 0.0 26 57
d 5.618616 1 6 ack 40 ------- 0 5.0 0.0 26 57
r 5.62212 6 0 ack 40 ------- 0 5.0 0.0 20 51
h 5.62212 0 6 tcp 1040 ------- 0 0.0 5.0 40 71
+ 5.623028 5 6 ack 40 ------- 0 5.0 0.0 27 58
- 5.623028 5 6 ack 40 ------- 0 5.0 0.0 27 58
d 5.623032 4 6 ack 40 ------- 0 5.0 0.0 27 58
d 5.623032 3 6 ack 40 ------- 0 5.0 0.0 27 58
d 5.623032 2 6 ack 40 ------- 0 5.0 0.0 27 58
d 5.623032 1 6 ack 40 ------- 0 5.0 0.0 27 58
r 5.626536 6 0 ack 40 ------- 0 5.0 0.0 21 52
h 5.626536 0 6 tcp 1040 ------- 0 0.0 5.0 41 72
+ 5.627444 5 6 ack 40 ------- 0 5.0 0.0 28 59
- 5.627444 5 6 ack 40 ------- 0 5.0 0.0 28 59
d 5.627448 4 6 ack 40 ------- 0 5.0 0.0 28 59
d 5.627448 3 6 ack 40 ------- 0 5.0 0.0 28 59
d 5.627448 2 6 ack 40 ------- 0 5.0 0.0 28 59
d 5.627448 1 6 ack 40 ------- 0 5.0 0.0 28 59
+ 5.63004 0 6 tcp 1040 ------- 0 0.0 5.0 31 60
- 5.63004 0 6 tcp 1040 ------- 0 0.0 5.0 31 60
+ 5.63004 0 6 tcp 1040 ------- 0 0.0 5.0 32 61
d 5.630044 4 6 tcp 1040 ------- 0 0.0 5.0 31 60
d 5.630044 3 6 tcp 1040 ------- 0 0.0 5.0 31 60
d 5.630044 2 6 tcp 1040 ------- 0 0.0 5.0 31 60
d 5.630044 1 6 tcp 1040 ------- 0 0.0 5.0 31 60
r 5.630952 6 0 ack 40 ------- 0 5.0 0.0 22 53
h 5.630952 0 6 tcp 1040 ------- 0 0.0 5.0 42 73
+ 5.63186 5 6 ack 40 ------- 0 5.0 0.0 29 62
- 5.63186 5 6 ack 40 ------- 0 5.0 0.0 29 62
d 5.631864 4 6 ack 40 ------- 0 5.0 0.0 29 62
d 5.631864 3 6 ack 40 ------- 0 5.0 0.0 29 62
d 5.631864 2 6 ack 40 ------- 0 5.0 0.0 29 62
d 5.631864 1 6 ack 40 ------- 0 5.0 0.0 29 62
+ 5.634456 0 6 tcp 1040 ------- 0 0.0 5.0 33 63
+ 5.634456 0 6 tcp 1040 ------- 0 0.0 5.0 34 64
- 5.634456 0 6 tcp 1040 ------- 0 0.0 5.0 32 61
d 5.63446 4 6 tcp 1040 ------- 0 0.0 5.0 32 61
d 5.63446 3 6 tcp 1040 ------- 0 0.0 5.0 32 61
d 5.63446 2 6 tcp 1040 ------- 0 0.0 5.0 32 61
d 5.63446 1 6 tcp 1040 ------- 0 0.0 5.0 32 61
r 5.635368 6 0 ack 40 ------- 0 5.0 0.0 23 54
h 5.635368 0 6 tcp 1040 ------- 0 0.0 5.0 43 74
+ 5.636276 5 6 ack 40 ------- 0 5.0 0.0 30 65
- 5.636276 5 6 ack 40 ------- 0 5.0 0.0 30 65
d 5.63628 4 6 ack 40 ------- 0 5.0 0.0 30 65
d 5.63628 3 6 ack 40 ------- 0 5.0 0.0 30 65
d 5.63628 2 6 ack 40 ------- 0 5.0 0.0 30 65
d 5.63628 1 6 ack 40 ------- 0 5.0 0.0 30 65
+ 5.638872 0 6 tcp 1040 ------- 0 0.0 5.0 35 66
+ 5.638872 0 6 tcp 1040 ------- 0 0.0 5.0 36 67
- 5.638872 0 6 tcp 1040 ------- 0 0.0 5.0 33 63
d 5.638876 4 6 tcp 1040 ------- 0 0.0 5.0 33 63
d 5.638876 3 6 tcp 1040 ------- 0 0.0 5.0 33 63
d 5.638876 2 6 tcp 1040 ------- 0 0.0 5.0 33 63
d 5.638876 1 6 tcp 1040 ------- 0 0.0 5.0 33 63
r 5.639784 6 0 ack 40 ------- 0 5.0 0.0 24 55
h 5.639784 0 6 tcp 1040 ------- 0 0.0 5.0 44 75
+ 5.643288 0 6 tcp 1040 ------- 0 0.0 5.0 37 68
+ 5.643288 0 6 tcp 1040 ------- 0 0.0 5.0 38 69
- 5.643288 0 6 tcp 1040 ------- 0 0.0 5.0 34 64
d 5.643292 4 6 tcp 1040 ------- 0 0.0 5.0 34 64
d 5.643292 3 6 tcp 1040 ------- 0 0.0 5.0 34 64
d 5.643292 2 6 tcp 1040 ------- 0 0.0 5.0 34 64
d 5.643292 1 6 tcp 1040 ------- 0 0.0 5.0 34 64
r 5.6442 6 0 ack 40 ------- 0 5.0 0.0 25 56
h 5.6442 0 6 tcp 1040 ------- 0 0.0 5.0 45 76
+ 5.647704 0 6 tcp 1040 ------- 0 0.0 5.0 39 70
- 5.647704 0 6 tcp 1040 ------- 0 0.0 5.0 35 66
d 5.647708 4 6 tcp 1040 ------- 0 0.0 5.0 35 66
d 5.647708 3 6 tcp 1040 ------- 0 0.0 5.0 35 66
d 5.647708 2 6 tcp 1040 ------- 0 0.0 5.0 35 66
d 5.647708 1 6 tcp 1040 ------- 0 0.0 5.0 35 66
r 5.648616 6 0 ack 40 ------- 0 5.0 0.0 26 57
h 5.648616 0 6 tcp 1040 ------- 0 0.0 5.0 46 77
+ 5.65212 0 6 tcp 1040 ------- 0 0.0 5.0 40 71
- 5.65212 0 6 tcp 1040 ------- 0 0.0 5.0 36 67
d 5.652124 4 6 tcp 1040 ------- 0 0.0 5.0 36 67
d 5.652124 3 6 tcp 1040 ------- 0 0.0 5.0 36 67
d 5.652124 2 6 tcp 1040 ------- 0 0.0 5.0 36 67
d 5.652124 1 6 tcp 1040 ------- 0 0.0 5.0 36 67
r 5.653032 6 0 ack 40 ------- 0 5.0 0.0 27 58
h 5.653032 0 6 tcp 1040 ------- 0 0.0 5.0 47 78
+ 5.656536 0 6 tcp 1040 ------- 0 0.0 5.0 41 72
- 5.656536 0 6 tcp 1040 ------- 0 0.0 5.0 37 68
d 5.65654 4 6 tcp 1040 ------- 0 0.0 5.0 37 68
d 5.65654 3 6 tcp 1040 ------- 0 0.0 5.0 37 68
d 5.65654 2 6 tcp 1040 ------- 0 0.0 5.0 37 68
d 5.65654 1 6 tcp 1040 ------- 0 0.0 5.0 37 68
r 5.657448 6 0 ack 40 ------- 0 5.0 0.0 28 59
h 5.657448 0 6 tcp 1040 ------- 0 0.0 5.0 48 79
r 5.660044 6 5 tcp 1040 ------- 0 0.0 5.0 31 60
h 5.660044 5 6 ack 40 ------- 0 5.0 0.0 31 80
+ 5.660952 0 6 tcp 1040 ------- 0 0.0 5.0 42 73
- 5.660952 0 6 tcp 1040 ------- 0 0.0 5.0 38 69
d 5.660956 4 6 tcp 1040 ------- 0 0.0 5.0 38 69
d 5.660956 3 6 tcp 1040 ------- 0 0.0 5.0 38 69
d 5.660956 2 6 tcp 1040 ------- 0 0.0 5.0 38 69
d 5.660956 1 6 tcp 1040 ------- 0 0.0 5.0 38 69
r 5.661864 6 0 ack 40 ------- 0 5.0 0.0 29 62
h 5.661864 0 6 tcp 1040 ------- 0 0.0 5.0 49 81
r 5.66446 6 5 tcp 1040 ------- 0 0.0 5.0 32 61
h 5.66446 5 6 ack 40 ------- 0 5.0 0.0 32 82
+ 5.665368 0 6 tcp 1040 ------- 0 0.0 5.0 43 74
- 5.665368 0 6 tcp 1040 ------- 0 0.0 5.0 39 70
d 5.665372 4 6 tcp 1040 ------- 0 0.0 5.0 39 70
d 5.665372 3 6 tcp 1040 ------- 0 0.0 5.0 39 70
d 5.665372 2 6 tcp 1040 ------- 0 0.0 5.0 39 70
d 5.665372 1 6 tcp 1040 ------- 0 0.0 5.0 39 70
r 5.66628 6 0 ack 40 ------- 0 5.0 0.0 30 65
h 5.66628 0 6 tcp 1040 ------- 0 0.0 5.0 50 83
r 5.668876 6 5 tcp 1040 ------- 0 0.0 5.0 33 63
h 5.668876 5 6 ack 40 ------- 0 5.0 0.0 33 84
+ 5.669784 0 6 tcp 1040 ------- 0 0.0 5.0 44 75
- 5.669784 0 6 tcp 1040 ------- 0 0.0 5.0 40 71
d 5.669788 4 6 tcp 1040 ------- 0 0.0 5.0 40 71
d 5.669788 3 6 tcp 1040 ------- 0 0.0 5.0 40 71
d 5.669788 2 6 tcp 1040 ------- 0 0.0 5.0 40 71
d 5.669788 1 6 tcp 1040 ------- 0 0.0 5.0 40 71
r 5.673292 6 5 tcp 1040 ------- 0 0.0 5.0 34 64
h 5.673292 5 6 ack 40 ------- 0 5.0 0.0 34 85
+ 5.6742 0 6 tcp 1040 ------- 0 0.0 5.0 45 76
- 5.6742 0 6 tcp 1040 ------- 0 0.0 5.0 41 72
d 5.674204 4 6 tcp 1040 ------- 0 0.0 5.0 41 72
d 5.674204 3 6 tcp 1040 ------- 0 0.0 5.0 41 72
d 5.674204 2 6 tcp 1040 ------- 0 0.0 5.0 41 72
d 5.674204 1 6 tcp 1040 ------- 0 0.0 5.0 41 72
r 5.677708 6 5 tcp 1040 ------- 0 0.0 5.0 35 66
h 5.677708 5 6 ack 40 ------- 0 5.0 0.0 35 86
+ 5.678616 0 6 tcp 1040 ------- 0 0.0 5.0 46 77
- 5.678616 0 6 tcp 1040 ------- 0 0.0 5.0 42 73
d 5.67862 4 6 tcp 1040 ------- 0 0.0 5.0 42 73
d 5.67862 3 6 tcp 1040 ------- 0 0.0 5.0 42 73
d 5.67862 2 6 tcp 1040 ------- 0 0.0 5.0 42 73
d 5.67862 1 6 tcp 1040 ------- 0 0.0 5.0 42 73
r 5.682124 6 5 tcp 1040 ------- 0 0.0 5.0 36 67
h 5.682124 5 6 ack 40 ------- 0 5.0 0.0 36 87
+ 5.683032 0 6 tcp 1040 ------- 0 0.0 5.0 47 78
- 5.683032 0 6 tcp 1040 ------- 0 0.0 5.0 43 74
d 5.683036 4 6 tcp 1040 ------- 0 0.0 5.0 43 74
d 5.683036 3 6 tcp 1040 ------- 0 0.0 5.0 43 74
d 5.683036 2 6 tcp 1040 ------- 0 0.0 5.0 43 74
d 5.683036 1 6 tcp 1040 ------- 0 0.0 5.0 43 74
r 5.68654 6 5 tcp 1040 ------- 0 0.0 5.0 37 68
h 5.68654 5 6 ack 40 ------- 0 5.0 0.0 37 88
+ 5.687448 0 6 tcp 1040 ------- 0 0.0 5.0 48 79
- 5.687448 0 6 tcp 1040 ------- 0 0.0 5.0 44 75
d 5.687452 4 6 tcp 1040 ------- 0 0.0 5.0 44 75
d 5.687452 3 6 tcp 1040 ------- 0 0.0 5.0 44 75
d 5.687452 2 6 tcp 1040 ------- 0 0.0 5.0 44 75
d 5.687452 1 6 tcp 1040 ------- 0 0.0 5.0 44 75
+ 5.690044 5 6 ack 40 ------- 0 5.0 0.0 31 80
- 5.690044 5 6 ack 40 ------- 0 5.0 0.0 31 80
d 5.690048 4 6 ack 40 ------- 0 5.0 0.0 31 80
d 5.690048 3 6 ack 40 ------- 0 5.0 0.0 31 80
d 5.690048 2 6 ack 40 ------- 0 5.0 0.0 31 80
d 5.690048 1 6 ack 40 ------- 0 5.0 0.0 31 80
r 5.690956 6 5 tcp 1040 ------- 0 0.0 5.0 38 69
h 5.690956 5 6 ack 40 ------- 0 5.0 0.0 38 89
+ 5.691864 0 6 tcp 1040 ------- 0 0.0 5.0 49 81
- 5.691864 0 6 tcp 1040 ------- 0 0.0 5.0 45 76
d 5.691868 4 6 tcp 1040 ------- 0 0.0 5.0 45 76
d 5.691868 3 6 tcp 1040 ------- 0 0.0 5.0 45 76
d 5.691868 2 6 tcp 1040 ------- 0 0.0 5.0 45 76
d 5.691868 1 6 tcp 1040 ------- 0 0.0 5.0 45 76
+ 5.69446 5 6 ack 40 ------- 0 5.0 0.0 32 82
- 5.69446 5 6 ack 40 ------- 0 5.0 0.0 32 82
d 5.694464 4 6 ack 40 ------- 0 5.0 0.0 32 82
d 5.694464 3 6 ack 40 ------- 0 5.0 0.0 32 82
d 5.694464 2 6 ack 40 ------- 0 5.0 0.0 32 82
d 5.694464 1 6 ack 40 ------- 0 5.0 0.0 32 82
r 5.695372 6 5 tcp 1040 ------- 0 0.0 5.0 39 70
h 5.695372 5 6 ack 40 ------- 0 5.0 0.0 39 90
+ 5.69628 0 6 tcp 1040 ------- 0 0.0 5.0 50 83
- 5.69628 0 6 tcp 1040 ------- 0 0.0 5.0 46 77
d 5.696284 4 6 tcp 1040 ------- 0 0.0 5.0 46 77
d 5.696284 3 6 tcp 1040 ------- 0 0.0 5.0 46 77